  63  63   0   0
  0.4095168E+02  0.9555753E-09  0.9555753E-09  0.3262510E-08  0.5000000E-15
  1.000000000000000E-004
  CAR 
 Mg_slab_in_a_box                        
      3.98340697    -25.83419512  301     -0.78294033      1.00000000
    -25.834  0.0000E+00  0.0000E+00
    -25.735  0.0000E+00  0.0000E+00
    -25.635  0.0000E+00  0.0000E+00
    -25.536  0.0000E+00  0.0000E+00
    -25.437  0.0000E+00  0.0000E+00
    -25.337  0.0000E+00  0.0000E+00
    -25.238  0.0000E+00  0.0000E+00
    -25.138  0.0000E+00  0.0000E+00
    -25.039  0.0000E+00  0.0000E+00
    -24.940  0.0000E+00  0.0000E+00
    -24.840  0.0000E+00  0.0000E+00
    -24.741  0.0000E+00  0.0000E+00
    -24.641  0.0000E+00  0.0000E+00
    -24.542  0.0000E+00  0.0000E+00
    -24.443  0.0000E+00  0.0000E+00
    -24.343  0.0000E+00  0.0000E+00
    -24.244  0.0000E+00  0.0000E+00
    -24.145  0.0000E+00  0.0000E+00
    -24.045  0.0000E+00  0.0000E+00
    -23.946  0.0000E+00  0.0000E+00
    -23.846  0.0000E+00  0.0000E+00
    -23.747  0.0000E+00  0.2000E+01
    -23.648  0.0000E+00  0.4000E+01
    -23.548  0.0000E+00  0.4000E+01
    -23.449  0.0000E+00  0.4000E+01
    -23.349  0.0000E+00  0.4000E+01
    -23.250  0.0000E+00  0.6000E+01
    -23.151  0.0000E+00  0.8000E+01
    -23.051  0.0000E+00  0.8000E+01
    -22.952  0.0000E+00  0.8000E+01
    -22.852  0.0000E+00  0.1000E+02
    -22.753  0.0000E+00  0.1000E+02
    -22.654  0.0000E+00  0.1000E+02
    -22.554  0.0000E+00  0.1000E+02
    -22.455  0.0000E+00  0.1000E+02
    -22.355  0.0000E+00  0.1000E+02
    -22.256  0.0000E+00  0.1000E+02
    -22.157  0.0000E+00  0.1000E+02
    -22.057  0.0000E+00  0.1000E+02
    -21.958  0.0000E+00  0.1000E+02
    -21.859  0.0000E+00  0.1000E+02
    -21.759  0.0000E+00  0.1000E+02
    -21.660  0.0000E+00  0.1000E+02
    -21.560  0.0000E+00  0.1000E+02
    -21.461  0.0000E+00  0.1000E+02
    -21.362  0.0000E+00  0.1000E+02
    -21.262  0.0000E+00  0.1000E+02
    -21.163  0.0000E+00  0.1000E+02
    -21.063  0.0000E+00  0.1000E+02
    -20.964  0.0000E+00  0.1000E+02
    -20.865  0.0000E+00  0.1200E+02
    -20.765  0.0000E+00  0.1200E+02
    -20.666  0.0000E+00  0.1200E+02
    -20.566  0.0000E+00  0.1200E+02
    -20.467  0.0000E+00  0.1200E+02
    -20.368  0.0000E+00  0.1200E+02
    -20.268  0.0000E+00  0.1200E+02
    -20.169  0.0000E+00  0.1200E+02
    -20.069  0.0000E+00  0.1200E+02
    -19.970  0.0000E+00  0.1200E+02
    -19.871  0.0000E+00  0.1200E+02
    -19.771  0.0000E+00  0.1200E+02
    -19.672  0.0000E+00  0.1200E+02
    -19.572  0.0000E+00  0.1200E+02
    -19.473  0.0000E+00  0.1200E+02
    -19.374  0.0000E+00  0.1200E+02
    -19.274  0.0000E+00  0.1200E+02
    -19.175  0.0000E+00  0.1200E+02
    -19.076  0.0000E+00  0.1200E+02
    -18.976  0.0000E+00  0.1200E+02
    -18.877  0.0000E+00  0.1200E+02
    -18.777  0.0000E+00  0.1200E+02
    -18.678  0.0000E+00  0.1200E+02
    -18.579  0.0000E+00  0.1200E+02
    -18.479  0.0000E+00  0.1200E+02
    -18.380  0.0000E+00  0.1200E+02
    -18.280  0.0000E+00  0.1200E+02
    -18.181  0.0000E+00  0.1200E+02
    -18.082  0.0000E+00  0.1200E+02
    -17.982  0.0000E+00  0.1200E+02
    -17.883  0.0000E+00  0.1200E+02
    -17.783  0.0000E+00  0.1200E+02
    -17.684  0.0000E+00  0.1200E+02
    -17.585  0.0000E+00  0.1200E+02
    -17.485  0.0000E+00  0.1200E+02
    -17.386  0.0000E+00  0.1200E+02
    -17.286  0.0000E+00  0.1200E+02
    -17.187  0.0000E+00  0.1200E+02
    -17.088  0.0000E+00  0.1200E+02
    -16.988  0.0000E+00  0.1200E+02
    -16.889  0.0000E+00  0.1200E+02
    -16.790  0.0000E+00  0.1200E+02
    -16.690  0.0000E+00  0.1200E+02
    -16.591  0.0000E+00  0.1200E+02
    -16.491  0.0000E+00  0.1200E+02
    -16.392  0.0000E+00  0.1200E+02
    -16.293  0.0000E+00  0.1200E+02
    -16.193  0.0000E+00  0.1200E+02
    -16.094  0.0000E+00  0.1200E+02
    -15.994  0.0000E+00  0.1200E+02
    -15.895  0.0000E+00  0.1200E+02
    -15.796  0.0000E+00  0.1200E+02
    -15.696  0.0000E+00  0.1200E+02
    -15.597  0.0000E+00  0.1200E+02
    -15.497  0.0000E+00  0.1200E+02
    -15.398  0.0000E+00  0.1200E+02
    -15.299  0.0000E+00  0.1200E+02
    -15.199  0.0000E+00  0.1200E+02
    -15.100  0.0000E+00  0.1200E+02
    -15.000  0.0000E+00  0.1200E+02
    -14.901  0.0000E+00  0.1200E+02
    -14.802  0.0000E+00  0.1200E+02
    -14.702  0.0000E+00  0.1200E+02
    -14.603  0.0000E+00  0.1200E+02
    -14.504  0.0000E+00  0.1200E+02
    -14.404  0.0000E+00  0.1200E+02
    -14.305  0.0000E+00  0.1200E+02
    -14.205  0.0000E+00  0.1200E+02
    -14.106  0.0000E+00  0.1200E+02
    -14.007  0.0000E+00  0.1200E+02
    -13.907  0.0000E+00  0.1200E+02
    -13.808  0.0000E+00  0.1200E+02
    -13.708  0.0000E+00  0.1200E+02
    -13.609  0.0000E+00  0.1200E+02
    -13.510  0.0000E+00  0.1200E+02
    -13.410  0.0000E+00  0.1200E+02
    -13.311  0.0000E+00  0.1200E+02
    -13.211  0.0000E+00  0.1200E+02
    -13.112  0.0000E+00  0.1200E+02
    -13.013  0.0000E+00  0.1200E+02
    -12.913  0.0000E+00  0.1200E+02
    -12.814  0.0000E+00  0.1200E+02
    -12.714  0.0000E+00  0.1200E+02
    -12.615  0.0000E+00  0.1200E+02
    -12.516  0.0000E+00  0.1200E+02
    -12.416  0.0000E+00  0.1200E+02
    -12.317  0.0000E+00  0.1200E+02
    -12.217  0.0000E+00  0.1200E+02
    -12.118  0.0000E+00  0.1200E+02
    -12.019  0.0000E+00  0.1200E+02
    -11.919  0.0000E+00  0.1200E+02
    -11.820  0.0000E+00  0.1400E+02
    -11.721  0.0000E+00  0.1600E+02
    -11.621  0.0000E+00  0.1600E+02
    -11.522  0.0000E+00  0.1600E+02
    -11.422  0.0000E+00  0.1600E+02
    -11.323  0.0000E+00  0.1600E+02
    -11.224  0.0000E+00  0.1600E+02
    -11.124  0.0000E+00  0.1800E+02
    -11.025  0.0000E+00  0.2000E+02
    -10.925  0.0000E+00  0.2000E+02
    -10.826  0.0000E+00  0.2200E+02
    -10.727  0.0000E+00  0.2200E+02
    -10.627  0.0000E+00  0.2200E+02
    -10.528  0.0000E+00  0.2200E+02
    -10.428  0.0000E+00  0.2200E+02
    -10.329  0.0000E+00  0.2200E+02
    -10.230  0.0000E+00  0.2200E+02
    -10.130  0.0000E+00  0.2200E+02
    -10.031  0.0000E+00  0.2200E+02
     -9.931  0.0000E+00  0.2200E+02
     -9.832  0.0000E+00  0.2200E+02
     -9.733  0.0000E+00  0.2200E+02
     -9.633  0.0000E+00  0.2200E+02
     -9.534  0.0000E+00  0.2200E+02
     -9.435  0.0000E+00  0.2200E+02
     -9.335  0.0000E+00  0.2200E+02
     -9.236  0.0000E+00  0.2200E+02
     -9.136  0.0000E+00  0.2200E+02
     -9.037  0.0000E+00  0.2200E+02
     -8.938  0.0000E+00  0.2200E+02
     -8.838  0.0000E+00  0.2200E+02
     -8.739  0.0000E+00  0.2400E+02
     -8.639  0.0000E+00  0.2600E+02
     -8.540  0.0000E+00  0.2600E+02
     -8.441  0.0000E+00  0.2600E+02
     -8.341  0.0000E+00  0.2800E+02
     -8.242  0.0000E+00  0.2800E+02
     -8.142  0.0000E+00  0.2800E+02
     -8.043  0.0000E+00  0.3000E+02
     -7.944  0.0000E+00  0.3000E+02
     -7.844  0.0000E+00  0.3000E+02
     -7.745  0.0000E+00  0.3200E+02
     -7.645  0.0000E+00  0.3200E+02
     -7.546  0.7190E-01  0.3400E+02
     -7.447  0.2696E+01  0.3414E+02
     -7.347  0.5321E+01  0.3454E+02
     -7.248  0.6286E+01  0.3522E+02
     -7.148  0.3772E+01  0.3572E+02
     -7.049  0.2634E+01  0.3598E+02
     -6.950  0.8063E+01  0.3648E+02
     -6.850  0.4796E+01  0.3796E+02
     -6.751  0.5061E+01  0.3816E+02
     -6.652  0.1534E+02  0.3909E+02
     -6.552  0.1156E+02  0.4070E+02
     -6.453  0.5937E+01  0.4175E+02
     -6.353  0.2566E+02  0.4335E+02
     -6.254  0.1908E+02  0.4586E+02
     -6.155  0.5096E+01  0.4749E+02
     -6.055  0.9934E+01  0.4818E+02
     -5.956  0.1774E+02  0.4956E+02
     -5.856  0.4065E+02  0.5175E+02
     -5.757  0.5709E+01  0.5339E+02
     -5.658  0.4814E+01  0.5541E+02
     -5.558  0.2317E+02  0.5806E+02
     -5.459  0.9366E+01  0.5968E+02
     -5.359  0.1596E+02  0.6001E+02
     -5.260  0.1106E+02  0.6226E+02
     -5.161  0.8742E+01  0.6344E+02
     -5.061  0.1685E+02  0.6476E+02
     -4.962  0.4986E+01  0.6592E+02
     -4.862  0.1028E+02  0.6704E+02
     -4.763  0.8605E+01  0.6796E+02
     -4.664  0.9695E+01  0.6882E+02
     -4.564  0.2618E+02  0.7152E+02
     -4.465  0.2591E+02  0.7415E+02
     -4.366  0.1396E+02  0.7584E+02
     -4.266  0.1846E+02  0.7757E+02
     -4.167  0.1443E+02  0.7884E+02
     -4.067  0.2106E+01  0.8030E+02
     -3.968  0.1514E+02  0.8103E+02
     -3.869  0.1912E+02  0.8330E+02
     -3.769  0.7163E+01  0.8464E+02
     -3.670  0.1535E+02  0.8623E+02
     -3.570  0.7900E+01  0.8714E+02
     -3.471  0.6842E+01  0.8787E+02
     -3.372  0.6686E+01  0.8853E+02
     -3.272  0.6924E+01  0.8920E+02
     -3.173  0.1728E+02  0.9126E+02
     -3.073  0.2016E+02  0.9315E+02
     -2.974  0.3217E+02  0.9560E+02
     -2.875  0.2821E+02  0.9885E+02
     -2.775  0.1315E+02  0.1009E+03
     -2.676  0.2246E+02  0.1019E+03
     -2.576  0.1088E+02  0.1040E+03
     -2.477  0.1119E+02  0.1063E+03
     -2.378  0.2861E+01  0.1075E+03
     -2.278  0.4298E+01  0.1092E+03
     -2.179  0.3116E+01  0.1095E+03
     -2.080  0.5468E+01  0.1112E+03
     -1.980  0.1592E+02  0.1122E+03
     -1.881  0.3296E+02  0.1146E+03
     -1.781  0.3041E+02  0.1177E+03
     -1.682  0.2938E+02  0.1207E+03
     -1.583  0.2347E+02  0.1232E+03
     -1.483  0.2193E+02  0.1254E+03
     -1.384  0.1282E+02  0.1271E+03
     -1.284  0.1028E+02  0.1282E+03
     -1.185  0.1175E+02  0.1292E+03
     -1.086  0.1492E+02  0.1314E+03
     -0.986  0.1834E+02  0.1340E+03
     -0.887  0.5859E+02  0.1363E+03
     -0.787  0.4125E+02  0.1378E+03
     -0.688  0.3392E+02  0.1417E+03
     -0.589  0.1957E+02  0.1439E+03
     -0.489  0.8805E+01  0.1448E+03
     -0.390  0.2464E+02  0.1464E+03
     -0.290  0.1071E+02  0.1476E+03
     -0.191  0.6331E+01  0.1491E+03
     -0.092  0.1128E+02  0.1515E+03
      0.008  0.6918E+01  0.1539E+03
      0.107  0.4449E+02  0.1569E+03
      0.207  0.5279E+01  0.1601E+03
      0.306  0.0000E+00  0.1620E+03
      0.405  0.3819E+02  0.1637E+03
      0.505  0.2506E+02  0.1662E+03
      0.604  0.1669E+02  0.1686E+03
      0.703  0.1883E+02  0.1706E+03
      0.803  0.2607E+02  0.1728E+03
      0.902  0.2354E+02  0.1753E+03
      1.002  0.2557E+02  0.1774E+03
      1.101  0.2983E+02  0.1799E+03
      1.200  0.3632E+02  0.1831E+03
      1.300  0.2836E+02  0.1871E+03
      1.399  0.2991E+02  0.1906E+03
      1.499  0.3926E+02  0.1945E+03
      1.598  0.3752E+02  0.1985E+03
      1.697  0.3619E+01  0.2002E+03
      1.797  0.1264E+02  0.2009E+03
      1.896  0.3477E+01  0.2024E+03
      1.996  0.0000E+00  0.2040E+03
      2.095  0.0000E+00  0.2040E+03
      2.194  0.0000E+00  0.2040E+03
      2.294  0.0000E+00  0.2040E+03
      2.393  0.0000E+00  0.2040E+03
      2.493  0.0000E+00  0.2040E+03
      2.592  0.0000E+00  0.2040E+03
      2.691  0.0000E+00  0.2040E+03
      2.791  0.0000E+00  0.2040E+03
      2.890  0.0000E+00  0.2040E+03
      2.989  0.0000E+00  0.2040E+03
      3.089  0.0000E+00  0.2040E+03
      3.188  0.0000E+00  0.2040E+03
      3.288  0.0000E+00  0.2040E+03
      3.387  0.0000E+00  0.2040E+03
      3.486  0.0000E+00  0.2040E+03
      3.586  0.0000E+00  0.2040E+03
      3.685  0.0000E+00  0.2040E+03
      3.785  0.0000E+00  0.2040E+03
      3.884  0.0000E+00  0.2040E+03
      3.983  0.0000E+00  0.2040E+03
