Mg_slab_in_a_box                        
           1
     9.555753    0.000000    0.000000
    -4.777876    8.275525    0.000000
     0.000000    0.000000   32.625095
   Mg   O    H 
  45   6  12
Direct configuration=     1
   0.00000000  0.00000000  0.00000000
   0.99868319  0.99885201  0.15827012
   0.00368101  0.00242692  0.33078882
   0.00000001  0.33333336  0.00000000
   0.00002424  0.33350467  0.15750631
   0.99266399  0.33300220  0.31205771
   0.00000002  0.66666672  0.00000000
   0.99839766  0.66589344  0.15791596
   0.00566864  0.67199966  0.31434965
   0.33333334  0.00000000  0.00000000
   0.33252667  0.99887163  0.15729611
   0.32806336  0.99871488  0.30872128
   0.33333335  0.33333336  0.00000000
   0.33174055  0.33124224  0.15689116
   0.32104699  0.32386379  0.31138019
   0.33333336  0.66666672  0.00000000
   0.33189792  0.66669049  0.15793832
   0.32315416  0.67299752  0.32970500
   0.66666668  0.00000000  0.00000000
   0.66625417  0.99818429  0.15773492
   0.67087123  0.00294313  0.31329139
   0.66666668  0.33333336  0.00000000
   0.66666684  0.33466716  0.15883342
   0.66038682  0.31434311  0.32667056
   0.66666670  0.66666672  0.00000000
   0.66858544  0.66654431  0.15864305
   0.66603282  0.66650507  0.32642801
   0.11111113  0.22222222  0.07982145
   0.10620612  0.21837962  0.23593494
   0.11111114  0.55555561  0.07982145
   0.11481846  0.55722491  0.23662345
   0.11111116  0.88888894  0.07982145
   0.10697868  0.88719882  0.23485404
   0.44444450  0.22222222  0.07982145
   0.44579691  0.22510300  0.23558273
   0.44444450  0.55555561  0.07982145
   0.44432655  0.55488257  0.23425236
   0.44444451  0.88888894  0.07982145
   0.44393287  0.88284999  0.23627527
   0.77777779  0.22222222  0.07982145
   0.77427145  0.22005418  0.23514910
   0.77777781  0.55555561  0.07982145
   0.77108384  0.54948756  0.24164553
   0.77777784  0.88888894  0.07982145
   0.77808350  0.88277685  0.23997494
   0.00370287  0.99881097  0.39607818
   0.30107818  0.97470872  0.41279945
   0.89247340  0.21353286  0.41611687
   0.61946628  0.32651305  0.38954537
   0.65580623  0.60839794  0.38549153
   0.37382428  0.69914925  0.39333081
   0.97281736  0.07283140  0.40954952
   0.09874310  0.00658072  0.41008372
   0.39498648  0.08296647  0.40820029
   0.26232225  0.93488916  0.38459878
   0.98662794  0.32251066  0.41737482
   0.85885070  0.20211699  0.38679402
   0.63405369  0.44504952  0.39224067
   0.69473945  0.31759284  0.40824444
   0.75687554  0.68224200  0.39934727
   0.42947412  0.54751009  0.32649190
   0.37662196  0.79158849  0.40745499
   0.46796240  0.68966427  0.40166777
