  63  63   0   0
  0.4095168E+02  0.9555753E-09  0.9555753E-09  0.3262510E-08  0.5000000E-15
  1.000000000000000E-004
  CAR 
 Mg_slab_in_a_box                        
      4.07891351    -25.89443158  301     -0.73566486      1.00000000
    -25.894  0.0000E+00  0.0000E+00
    -25.795  0.0000E+00  0.0000E+00
    -25.695  0.0000E+00  0.0000E+00
    -25.595  0.0000E+00  0.0000E+00
    -25.495  0.0000E+00  0.0000E+00
    -25.395  0.0000E+00  0.0000E+00
    -25.295  0.0000E+00  0.0000E+00
    -25.195  0.0000E+00  0.0000E+00
    -25.095  0.0000E+00  0.0000E+00
    -24.995  0.0000E+00  0.0000E+00
    -24.895  0.0000E+00  0.0000E+00
    -24.795  0.0000E+00  0.0000E+00
    -24.695  0.0000E+00  0.0000E+00
    -24.596  0.0000E+00  0.0000E+00
    -24.496  0.0000E+00  0.0000E+00
    -24.396  0.0000E+00  0.0000E+00
    -24.296  0.0000E+00  0.0000E+00
    -24.196  0.0000E+00  0.0000E+00
    -24.096  0.0000E+00  0.0000E+00
    -23.996  0.0000E+00  0.0000E+00
    -23.896  0.0000E+00  0.0000E+00
    -23.796  0.0000E+00  0.2000E+01
    -23.696  0.0000E+00  0.2000E+01
    -23.596  0.0000E+00  0.4000E+01
    -23.497  0.0000E+00  0.4000E+01
    -23.397  0.0000E+00  0.4000E+01
    -23.297  0.0000E+00  0.6000E+01
    -23.197  0.0000E+00  0.8000E+01
    -23.097  0.0000E+00  0.8000E+01
    -22.997  0.0000E+00  0.8000E+01
    -22.897  0.0000E+00  0.8000E+01
    -22.797  0.0000E+00  0.8000E+01
    -22.697  0.0000E+00  0.8000E+01
    -22.597  0.0000E+00  0.1000E+02
    -22.497  0.0000E+00  0.1000E+02
    -22.398  0.0000E+00  0.1000E+02
    -22.298  0.0000E+00  0.1000E+02
    -22.198  0.0000E+00  0.1000E+02
    -22.098  0.0000E+00  0.1000E+02
    -21.998  0.0000E+00  0.1000E+02
    -21.898  0.0000E+00  0.1000E+02
    -21.798  0.0000E+00  0.1000E+02
    -21.698  0.0000E+00  0.1000E+02
    -21.598  0.0000E+00  0.1000E+02
    -21.498  0.0000E+00  0.1000E+02
    -21.398  0.0000E+00  0.1000E+02
    -21.299  0.0000E+00  0.1000E+02
    -21.199  0.0000E+00  0.1000E+02
    -21.099  0.0000E+00  0.1000E+02
    -20.999  0.0000E+00  0.1000E+02
    -20.899  0.0000E+00  0.1000E+02
    -20.799  0.0000E+00  0.1200E+02
    -20.699  0.0000E+00  0.1200E+02
    -20.599  0.0000E+00  0.1200E+02
    -20.499  0.0000E+00  0.1200E+02
    -20.399  0.0000E+00  0.1200E+02
    -20.299  0.0000E+00  0.1200E+02
    -20.199  0.0000E+00  0.1200E+02
    -20.100  0.0000E+00  0.1200E+02
    -20.000  0.0000E+00  0.1200E+02
    -19.900  0.0000E+00  0.1200E+02
    -19.800  0.0000E+00  0.1200E+02
    -19.700  0.0000E+00  0.1200E+02
    -19.600  0.0000E+00  0.1200E+02
    -19.500  0.0000E+00  0.1200E+02
    -19.400  0.0000E+00  0.1200E+02
    -19.300  0.0000E+00  0.1200E+02
    -19.200  0.0000E+00  0.1200E+02
    -19.100  0.0000E+00  0.1200E+02
    -19.001  0.0000E+00  0.1200E+02
    -18.901  0.0000E+00  0.1200E+02
    -18.801  0.0000E+00  0.1200E+02
    -18.701  0.0000E+00  0.1200E+02
    -18.601  0.0000E+00  0.1200E+02
    -18.501  0.0000E+00  0.1200E+02
    -18.401  0.0000E+00  0.1200E+02
    -18.301  0.0000E+00  0.1200E+02
    -18.201  0.0000E+00  0.1200E+02
    -18.101  0.0000E+00  0.1200E+02
    -18.001  0.0000E+00  0.1200E+02
    -17.902  0.0000E+00  0.1200E+02
    -17.802  0.0000E+00  0.1200E+02
    -17.702  0.0000E+00  0.1200E+02
    -17.602  0.0000E+00  0.1200E+02
    -17.502  0.0000E+00  0.1200E+02
    -17.402  0.0000E+00  0.1200E+02
    -17.302  0.0000E+00  0.1200E+02
    -17.202  0.0000E+00  0.1200E+02
    -17.102  0.0000E+00  0.1200E+02
    -17.002  0.0000E+00  0.1200E+02
    -16.902  0.0000E+00  0.1200E+02
    -16.803  0.0000E+00  0.1200E+02
    -16.703  0.0000E+00  0.1200E+02
    -16.603  0.0000E+00  0.1200E+02
    -16.503  0.0000E+00  0.1200E+02
    -16.403  0.0000E+00  0.1200E+02
    -16.303  0.0000E+00  0.1200E+02
    -16.203  0.0000E+00  0.1200E+02
    -16.103  0.0000E+00  0.1200E+02
    -16.003  0.0000E+00  0.1200E+02
    -15.903  0.0000E+00  0.1200E+02
    -15.803  0.0000E+00  0.1200E+02
    -15.703  0.0000E+00  0.1200E+02
    -15.604  0.0000E+00  0.1200E+02
    -15.504  0.0000E+00  0.1200E+02
    -15.404  0.0000E+00  0.1200E+02
    -15.304  0.0000E+00  0.1200E+02
    -15.204  0.0000E+00  0.1200E+02
    -15.104  0.0000E+00  0.1200E+02
    -15.004  0.0000E+00  0.1200E+02
    -14.904  0.0000E+00  0.1200E+02
    -14.804  0.0000E+00  0.1200E+02
    -14.704  0.0000E+00  0.1200E+02
    -14.604  0.0000E+00  0.1200E+02
    -14.505  0.0000E+00  0.1200E+02
    -14.405  0.0000E+00  0.1200E+02
    -14.305  0.0000E+00  0.1200E+02
    -14.205  0.0000E+00  0.1200E+02
    -14.105  0.0000E+00  0.1200E+02
    -14.005  0.0000E+00  0.1200E+02
    -13.905  0.0000E+00  0.1200E+02
    -13.805  0.0000E+00  0.1200E+02
    -13.705  0.0000E+00  0.1200E+02
    -13.605  0.0000E+00  0.1200E+02
    -13.505  0.0000E+00  0.1200E+02
    -13.406  0.0000E+00  0.1200E+02
    -13.306  0.0000E+00  0.1200E+02
    -13.206  0.0000E+00  0.1200E+02
    -13.106  0.0000E+00  0.1200E+02
    -13.006  0.0000E+00  0.1200E+02
    -12.906  0.0000E+00  0.1200E+02
    -12.806  0.0000E+00  0.1200E+02
    -12.706  0.0000E+00  0.1200E+02
    -12.606  0.0000E+00  0.1200E+02
    -12.506  0.0000E+00  0.1200E+02
    -12.406  0.0000E+00  0.1200E+02
    -12.307  0.0000E+00  0.1200E+02
    -12.207  0.0000E+00  0.1200E+02
    -12.107  0.0000E+00  0.1200E+02
    -12.007  0.0000E+00  0.1200E+02
    -11.907  0.0000E+00  0.1400E+02
    -11.807  0.0000E+00  0.1400E+02
    -11.707  0.0000E+00  0.1600E+02
    -11.607  0.0000E+00  0.1600E+02
    -11.507  0.0000E+00  0.1600E+02
    -11.407  0.0000E+00  0.1600E+02
    -11.307  0.0000E+00  0.1600E+02
    -11.207  0.0000E+00  0.1600E+02
    -11.108  0.0000E+00  0.1800E+02
    -11.008  0.0000E+00  0.2000E+02
    -10.908  0.0000E+00  0.2000E+02
    -10.808  0.0000E+00  0.2200E+02
    -10.708  0.0000E+00  0.2200E+02
    -10.608  0.0000E+00  0.2200E+02
    -10.508  0.0000E+00  0.2200E+02
    -10.408  0.0000E+00  0.2200E+02
    -10.308  0.0000E+00  0.2200E+02
    -10.208  0.0000E+00  0.2200E+02
    -10.108  0.0000E+00  0.2200E+02
    -10.009  0.0000E+00  0.2200E+02
     -9.909  0.0000E+00  0.2200E+02
     -9.809  0.0000E+00  0.2200E+02
     -9.709  0.0000E+00  0.2200E+02
     -9.609  0.0000E+00  0.2200E+02
     -9.509  0.0000E+00  0.2200E+02
     -9.409  0.0000E+00  0.2200E+02
     -9.309  0.0000E+00  0.2200E+02
     -9.209  0.0000E+00  0.2200E+02
     -9.109  0.0000E+00  0.2200E+02
     -9.009  0.0000E+00  0.2200E+02
     -8.910  0.0000E+00  0.2200E+02
     -8.810  0.0000E+00  0.2400E+02
     -8.710  0.0000E+00  0.2400E+02
     -8.610  0.0000E+00  0.2600E+02
     -8.510  0.0000E+00  0.2600E+02
     -8.410  0.0000E+00  0.2600E+02
     -8.310  0.0000E+00  0.2800E+02
     -8.210  0.0000E+00  0.2800E+02
     -8.110  0.0000E+00  0.2800E+02
     -8.010  0.0000E+00  0.2800E+02
     -7.910  0.0000E+00  0.3000E+02
     -7.811  0.1714E+02  0.3008E+02
     -7.711  0.0000E+00  0.3400E+02
     -7.611  0.0000E+00  0.3400E+02
     -7.511  0.0000E+00  0.3400E+02
     -7.411  0.2239E+01  0.3410E+02
     -7.311  0.4814E+01  0.3445E+02
     -7.211  0.6409E+01  0.3509E+02
     -7.111  0.4164E+01  0.3561E+02
     -7.011  0.1920E+01  0.3592E+02
     -6.911  0.5975E+01  0.3625E+02
     -6.811  0.1220E+02  0.3787E+02
     -6.711  0.4882E+01  0.3813E+02
     -6.612  0.1930E+02  0.3917E+02
     -6.512  0.1911E+02  0.4129E+02
     -6.412  0.1023E+02  0.4198E+02
     -6.312  0.1305E+02  0.4384E+02
     -6.212  0.4913E+01  0.4552E+02
     -6.112  0.1020E+02  0.4624E+02
     -6.012  0.1696E+02  0.4759E+02
     -5.912  0.1783E+02  0.4900E+02
     -5.812  0.5113E+02  0.5259E+02
     -5.712  0.6836E+01  0.5510E+02
     -5.612  0.6410E+01  0.5716E+02
     -5.513  0.2179E+02  0.5807E+02
     -5.413  0.9470E+01  0.5963E+02
     -5.313  0.0000E+00  0.6000E+02
     -5.213  0.7854E+01  0.6222E+02
     -5.113  0.8016E+01  0.6320E+02
     -5.013  0.5893E+01  0.6380E+02
     -4.913  0.2006E+02  0.6582E+02
     -4.813  0.1149E+02  0.6693E+02
     -4.713  0.8074E+01  0.6789E+02
     -4.613  0.7406E+01  0.6861E+02
     -4.513  0.1486E+02  0.7111E+02
     -4.414  0.1716E+02  0.7321E+02
     -4.314  0.1361E+02  0.7580E+02
     -4.214  0.1935E+02  0.7747E+02
     -4.114  0.1423E+02  0.7886E+02
     -4.014  0.2873E+01  0.8027E+02
     -3.914  0.1701E+02  0.8114E+02
     -3.814  0.2044E+02  0.8347E+02
     -3.714  0.7688E+01  0.8471E+02
     -3.614  0.1380E+02  0.8637E+02
     -3.514  0.7577E+01  0.8724E+02
     -3.414  0.6584E+01  0.8795E+02
     -3.315  0.6742E+01  0.8862E+02
     -3.215  0.6921E+01  0.8930E+02
     -3.115  0.1793E+02  0.9149E+02
     -3.015  0.1891E+02  0.9342E+02
     -2.915  0.3171E+02  0.9601E+02
     -2.815  0.2598E+02  0.9922E+02
     -2.715  0.1182E+02  0.1010E+03
     -2.615  0.2330E+02  0.1024E+03
     -2.515  0.7058E+01  0.1041E+03
     -2.415  0.1450E+02  0.1065E+03
     -2.315  0.2893E+01  0.1075E+03
     -2.215  0.4123E+01  0.1093E+03
     -2.116  0.2830E+01  0.1096E+03
     -2.016  0.6330E+01  0.1114E+03
     -1.916  0.1871E+02  0.1125E+03
     -1.816  0.3302E+02  0.1153E+03
     -1.716  0.3242E+02  0.1183E+03
     -1.616  0.2739E+02  0.1213E+03
     -1.516  0.2147E+02  0.1237E+03
     -1.416  0.2194E+02  0.1259E+03
     -1.316  0.1235E+02  0.1274E+03
     -1.216  0.1001E+02  0.1285E+03
     -1.116  0.1509E+02  0.1295E+03
     -1.017  0.2131E+02  0.1319E+03
     -0.917  0.2177E+02  0.1346E+03
     -0.817  0.5540E+01  0.1367E+03
     -0.717  0.4038E+02  0.1391E+03
     -0.617  0.2516E+02  0.1426E+03
     -0.517  0.1023E+02  0.1443E+03
     -0.417  0.1073E+02  0.1451E+03
     -0.317  0.7913E+01  0.1469E+03
     -0.217  0.1428E+02  0.1479E+03
     -0.117  0.3795E+02  0.1496E+03
     -0.017  0.4626E+02  0.1522E+03
      0.082  0.2122E+02  0.1544E+03
      0.182  0.1622E+02  0.1584E+03
      0.282  0.1193E+02  0.1603E+03
      0.382  0.0000E+00  0.1620E+03
      0.482  0.2509E+02  0.1646E+03
      0.582  0.2894E+02  0.1673E+03
      0.682  0.1910E+02  0.1693E+03
      0.782  0.1210E+02  0.1713E+03
      0.882  0.3001E+02  0.1737E+03
      0.982  0.9939E+01  0.1762E+03
      1.082  0.2609E+02  0.1786E+03
      1.181  0.2031E+02  0.1811E+03
      1.281  0.2679E+02  0.1846E+03
      1.381  0.4030E+02  0.1887E+03
      1.481  0.3014E+02  0.1925E+03
      1.581  0.4874E+02  0.1967E+03
      1.681  0.1660E+02  0.1998E+03
      1.781  0.2781E+02  0.2007E+03
      1.881  0.1888E+01  0.2022E+03
      1.981  0.2914E+01  0.2024E+03
      2.081  0.0000E+00  0.2040E+03
      2.181  0.0000E+00  0.2040E+03
      2.281  0.0000E+00  0.2040E+03
      2.380  0.0000E+00  0.2040E+03
      2.480  0.0000E+00  0.2040E+03
      2.580  0.0000E+00  0.2040E+03
      2.680  0.0000E+00  0.2040E+03
      2.780  0.0000E+00  0.2040E+03
      2.880  0.0000E+00  0.2040E+03
      2.980  0.0000E+00  0.2040E+03
      3.080  0.0000E+00  0.2040E+03
      3.180  0.0000E+00  0.2040E+03
      3.280  0.0000E+00  0.2040E+03
      3.380  0.0000E+00  0.2040E+03
      3.479  0.0000E+00  0.2040E+03
      3.579  0.0000E+00  0.2040E+03
      3.679  0.0000E+00  0.2040E+03
      3.779  0.0000E+00  0.2040E+03
      3.879  0.0000E+00  0.2040E+03
      3.979  0.0000E+00  0.2040E+03
      4.079  0.0000E+00  0.2040E+03
