       N       E                     dE             d eps       ncg     rms          rms(c)
RMM:   1     0.124179865234E+04    0.12418E+04   -0.27932E+04   510   0.785E+02
RMM:   2     0.544463582583E+03   -0.69734E+03   -0.75638E+03   510   0.166E+02
RMM:   3     0.309840321002E+03   -0.23462E+03   -0.29878E+03   510   0.832E+01
RMM:   4     0.138132425000E+03   -0.17171E+03   -0.14790E+03   510   0.790E+01
RMM:   5     0.218507289828E+02   -0.11628E+03   -0.92827E+02   510   0.637E+01
RMM:   6    -0.421409414204E+02   -0.63992E+02   -0.48633E+02   510   0.463E+01
RMM:   7    -0.701977584197E+02   -0.28057E+02   -0.20853E+02   510   0.272E+01
RMM:   8    -0.782304594836E+02   -0.80327E+01   -0.63204E+01   510   0.144E+01
RMM:   9    -0.805520651357E+02   -0.23216E+01   -0.22191E+01  1491   0.781E+00
RMM:  10    -0.808264091555E+02   -0.27434E+00   -0.29802E+00  1756   0.282E+00
RMM:  11    -0.808255725704E+02    0.83659E-03   -0.15739E-01  1717   0.692E-01
RMM:  12    -0.808280578741E+02   -0.24853E-02   -0.33540E-02  1794   0.286E-01    0.202E+01
RMM:  13    -0.709136195269E+02    0.99144E+01   -0.62662E+01  1403   0.145E+01    0.795E+00
RMM:  14    -0.976812355829E+02   -0.26768E+02   -0.14540E+01  1598   0.369E+00    0.109E+01
RMM:  15    -0.693769875030E+02    0.28304E+02   -0.33912E+00  1444   0.161E+00    0.496E+00
RMM:  16    -0.693921663474E+02   -0.15179E-01   -0.14305E+00  1597   0.200E+00    0.255E+00
RMM:  17    -0.690429418117E+02    0.34922E+00   -0.44075E-01  1335   0.135E+00    0.862E-01
RMM:  18    -0.690204510833E+02    0.22491E-01   -0.12703E-01  1573   0.676E-01    0.351E-01
RMM:  19    -0.690180524493E+02    0.23986E-02   -0.21268E-02  1379   0.279E-01    0.218E-01
RMM:  20    -0.690176329623E+02    0.41949E-03   -0.94408E-03  1463   0.190E-01    0.752E-02
RMM:  21    -0.690120844306E+02    0.55485E-02   -0.22004E-03  1452   0.815E-02    0.450E-02
RMM:  22    -0.690064643351E+02    0.56201E-02   -0.62449E-04  1469   0.394E-02    0.321E-02
RMM:  23    -0.690037514384E+02    0.27129E-02   -0.32657E-04  1199   0.364E-02    0.163E-02
RMM:  24    -0.690056212711E+02   -0.18698E-02   -0.31056E-04  1123   0.401E-02    0.131E-02
RMM:  25    -0.690061465018E+02   -0.52523E-03   -0.19484E-04  1068   0.324E-02    0.656E-03
RMM:  26    -0.690060065318E+02    0.13997E-03   -0.36232E-04  1071   0.303E-02    0.588E-03
RMM:  27    -0.690059884408E+02    0.18091E-04   -0.67279E-05   989   0.127E-02    0.190E-03
RMM:  28    -0.690059976949E+02   -0.92541E-05   -0.65127E-05   890   0.126E-02    0.106E-03
RMM:  29    -0.690060054934E+02   -0.77985E-05   -0.39353E-05   842   0.936E-03    0.675E-04
RMM:  30    -0.690060220330E+02   -0.16540E-04   -0.85485E-06   803   0.517E-03    0.862E-04
RMM:  31    -0.690060747988E+02   -0.52766E-04   -0.12880E-05   765   0.637E-03    0.172E-03
RMM:  32    -0.690060777507E+02   -0.29519E-05   -0.69864E-06   741   0.416E-03
   1 F= -.69006078E+02 E0= -.69006078E+02  d E =0.000000E+00
