 vasp.5.4.4.18Apr17-6-g9f103f2a35 (build Jun 08 2018 12:06:12) complex          
  
 executed on             LinuxIFC date 2019.06.06  07:08:14
 running on   72 total cores
 distrk:  each k-point on   72 cores,    1 groups
 distr:  one band on NCORES_PER_BAND=  24 cores,    3 groups


--------------------------------------------------------------------------------------------------------


 INCAR:
 POTCAR:    PAW_PBE Mg 13Apr2007                  
 POTCAR:    PAW_PBE O 08Apr2002                   
 POTCAR:    PAW_PBE H 15Jun2001                   

 ----------------------------------------------------------------------------- 
|                                                                             |
|           W    W    AA    RRRRR   N    N  II  N    N   GGGG   !!!           |
|           W    W   A  A   R    R  NN   N  II  NN   N  G    G  !!!           |
|           W    W  A    A  R    R  N N  N  II  N N  N  G       !!!           |
|           W WW W  AAAAAA  RRRRR   N  N N  II  N  N N  G  GGG   !            |
|           WW  WW  A    A  R   R   N   NN  II  N   NN  G    G                |
|           W    W  A    A  R    R  N    N  II  N    N   GGGG   !!!           |
|                                                                             |
|      For optimal performance we recommend to set                            |
|        NCORE= 4 - approx SQRT( number of cores)                             |
|      NCORE specifies how many cores store one orbital (NPAR=cpu/NCORE).     |
|      This setting can  greatly improve the performance of VASP for DFT.     |
|      The default,   NCORE=1            might be grossly inefficient         |
|      on modern multi-core architectures or massively parallel machines.     |
|      Do your own testing !!!!                                               |
|      Unfortunately you need to use the default for GW and RPA calculations. |
|      (for HF NCORE is supported but not extensively tested yet)             |
|                                                                             |
 ----------------------------------------------------------------------------- 


 ----------------------------------------------------------------------------- 
|                                                                             |
|  ADVICE TO THIS USER RUNNING 'VASP/VAMP'   (HEAR YOUR MASTER'S VOICE ...):  |
|                                                                             |
|      You have switched on vdW-DFT.                                          |
|      This routine was written and supplied by Jiri Klimes.                  |
|      We recommed that you carefully read and cite the following             |
|      publication                                                            |
|      J. Klimes, D.R. Bowler, A. Michelides                                  |
|        J. Phys.: Cond Matt. 22 022201 (2010)                                |
|      J. Klimes, D.R. Bowler, A. Michelides                                  |
|        Phys. Rev. B. 83, 195131 (2011)                                      |
|      and references therein.                                                |
|                                                                             |
 ----------------------------------------------------------------------------- 

 POTCAR:    PAW_PBE Mg 13Apr2007                  
   VRHFIN =Mg: s2p0                                                             
   LEXCH  = PE                                                                  
   EATOM  =    23.0369 eV,    1.6932 Ry                                         
                                                                                
   TITEL  = PAW_PBE Mg 13Apr2007                                                
   LULTRA =        F    use ultrasoft PP ?                                      
   IUNSCR =        1    unscreen: 0-lin 1-nonlin 2-no                           
   RPACOR =    1.500    partial core radius                                     
   POMASS =   24.305; ZVAL   =    2.000    mass and valenz                      
   RCORE  =    2.000    outmost cutoff radius                                   
   RWIGS  =    2.880; RWIGS  =    1.524    wigner-seitz radius (au A)           
   ENMAX  =  200.000; ENMIN  =  100.000 eV                                      
   RCLOC  =    1.506    cutoff for local pot                                    
   LCOR   =        T    correct aug charges                                     
   LPAW   =        T    paw PP                                                  
   EAUG   =  454.734                                                            
   DEXC   =    0.000                                                            
   RMAX   =    2.045    core radius for proj-oper                               
   RAUG   =    1.300    factor for augmentation sphere                          
   RDEP   =    2.025    radius for radial grids                                 
   RDEPT  =    1.942    core radius for aug-charge                              
                                                                                
   Atomic configuration                                                         
    6 entries                                                                   
     n  l   j            E        occ.                                          
     1  0  0.50     -1259.6230   2.0000                                         
     2  0  0.50       -79.8442   2.0000                                         
     2  1  1.50       -46.6121   6.0000                                         
     3  0  0.50        -4.7055   2.0000                                         
     3  1  0.50        -1.3660   0.0000                                         
     3  2  1.50        -1.3606   0.0000                                         
   Description                                                                  
     l       E           TYP  RCUT    TYP  RCUT                                 
     0     -4.7054661     23  2.000                                             
     0     27.2116520     23  2.000                                             
     1      1.3605826     23  2.000                                             
     1     27.2116520     23  2.000                                             
     2     -1.3605826     23  2.000                                             
  local pseudopotential read in
  partial core-charges read in
  partial kinetic energy density read in
  atomic valenz-charges read in
  non local Contribution for L=           0  read in
    real space projection operators read in
  non local Contribution for L=           0  read in
    real space projection operators read in
  non local Contribution for L=           1  read in
    real space projection operators read in
  non local Contribution for L=           1  read in
    real space projection operators read in
  non local Contribution for L=           2  read in
    real space projection operators read in
    PAW grid and wavefunctions read in
 
   number of l-projection  operators is LMAX  =           5
   number of lm-projection operators is LMMAX =          13
 
 POTCAR:    PAW_PBE O 08Apr2002                   
   VRHFIN =O: s2p4                                                              
   LEXCH  = PE                                                                  
   EATOM  =   432.3788 eV,   31.7789 Ry                                         
                                                                                
   TITEL  = PAW_PBE O 08Apr2002                                                 
   LULTRA =        F    use ultrasoft PP ?                                      
   IUNSCR =        1    unscreen: 0-lin 1-nonlin 2-no                           
   RPACOR =    1.200    partial core radius                                     
   POMASS =   16.000; ZVAL   =    6.000    mass and valenz                      
   RCORE  =    1.520    outmost cutoff radius                                   
   RWIGS  =    1.550; RWIGS  =    0.820    wigner-seitz radius (au A)           
   ENMAX  =  400.000; ENMIN  =  300.000 eV                                      
   ICORE  =        2    local potential                                         
   LCOR   =        T    correct aug charges                                     
   LPAW   =        T    paw PP                                                  
   EAUG   =  605.392                                                            
   DEXC   =    0.000                                                            
   RMAX   =    1.553    core radius for proj-oper                               
   RAUG   =    1.300    factor for augmentation sphere                          
   RDEP   =    1.550    radius for radial grids                                 
   RDEPT  =    1.329    core radius for aug-charge                              
                                                                                
   Atomic configuration                                                         
    4 entries                                                                   
     n  l   j            E        occ.                                          
     1  0  0.50      -514.6923   2.0000                                         
     2  0  0.50       -23.9615   2.0000                                         
     2  1  0.50        -9.0305   4.0000                                         
     3  2  1.50        -9.5241   0.0000                                         
   Description                                                                  
     l       E           TYP  RCUT    TYP  RCUT                                 
     0    -23.9615318     23  1.200                                             
     0     -9.5240782     23  1.200                                             
     1     -9.0304911     23  1.520                                             
     1      8.1634956     23  1.520                                             
     2     -9.5240782      7  1.500                                             
  local pseudopotential read in
  partial core-charges read in
  partial kinetic energy density read in
  kinetic energy density of atom read in
  atomic valenz-charges read in
  non local Contribution for L=           0  read in
    real space projection operators read in
  non local Contribution for L=           0  read in
    real space projection operators read in
  non local Contribution for L=           1  read in
    real space projection operators read in
  non local Contribution for L=           1  read in
    real space projection operators read in
    PAW grid and wavefunctions read in
 
   number of l-projection  operators is LMAX  =           4
   number of lm-projection operators is LMMAX =           8
 
 POTCAR:    PAW_PBE H 15Jun2001                   
   VRHFIN =H: ultrasoft test                                                    
   LEXCH  = PE                                                                  
   EATOM  =    12.4884 eV,    0.9179 Ry                                         
                                                                                
   TITEL  = PAW_PBE H 15Jun2001                                                 
   LULTRA =        F    use ultrasoft PP ?                                      
   IUNSCR =        0    unscreen: 0-lin 1-nonlin 2-no                           
   RPACOR =    0.000    partial core radius                                     
   POMASS =    1.000; ZVAL   =    1.000    mass and valenz                      
   RCORE  =    1.100    outmost cutoff radius                                   
   RWIGS  =    0.700; RWIGS  =    0.370    wigner-seitz radius (au A)           
   ENMAX  =  250.000; ENMIN  =  200.000 eV                                      
   RCLOC  =    0.701    cutoff for local pot                                    
   LCOR   =        T    correct aug charges                                     
   LPAW   =        T    paw PP                                                  
   EAUG   =  400.000                                                            
   RMAX   =    1.123    core radius for proj-oper                               
   RAUG   =    1.200    factor for augmentation sphere                          
   RDEP   =    1.112    radius for radial grids                                 
   RDEPT  =    0.926    core radius for aug-charge                              
                                                                                
   Atomic configuration                                                         
    2 entries                                                                   
     n  l   j            E        occ.                                          
     1  0  0.50        -6.4927   1.0000                                         
     2  1  0.50        -3.4015   0.0000                                         
   Description                                                                  
     l       E           TYP  RCUT    TYP  RCUT                                 
     0     -6.4927494     23  1.100                                             
     0      6.8029130     23  1.100                                             
     1     -4.0817478     23  1.100                                             
  local pseudopotential read in
  atomic valenz-charges read in
  non local Contribution for L=           0  read in
    real space projection operators read in
  non local Contribution for L=           0  read in
    real space projection operators read in
  non local Contribution for L=           1  read in
    real space projection operators read in
    PAW grid and wavefunctions read in
 
   number of l-projection  operators is LMAX  =           3
   number of lm-projection operators is LMMAX =           5
 
 Optimization of the real space projectors (new method)

 maximal supplied QI-value         = 18.90
 optimisation between [QCUT,QGAM] = [ 11.53, 23.24] = [ 37.21,151.29] Ry 
 Optimized for a Real-space Cutoff    1.28 Angstroem

   l    n(q)    QCUT    max X(q) W(low)/X(q) W(high)/X(q)  e(spline) 
   0      9    11.527    28.265    0.62E-04    0.53E-04    0.73E-07
   0      9    11.527    10.429    0.52E-04    0.40E-04    0.58E-07
   1      8    11.527    13.073    0.98E-04    0.18E-03    0.86E-07
   1      8    11.527     9.625    0.79E-04    0.15E-03    0.74E-07
   2      8    11.527     4.652    0.22E-03    0.72E-04    0.47E-07
 Optimization of the real space projectors (new method)

 maximal supplied QI-value         = 24.76
 optimisation between [QCUT,QGAM] = [ 11.64, 23.27] = [ 37.91,151.63] Ry 
 Optimized for a Real-space Cutoff    1.14 Angstroem

   l    n(q)    QCUT    max X(q) W(low)/X(q) W(high)/X(q)  e(spline) 
   0      8    11.635    20.381    0.10E-03    0.33E-03    0.24E-06
   0      8    11.635    15.268    0.11E-03    0.35E-03    0.26E-06
   1      7    11.635     5.964    0.24E-03    0.31E-03    0.30E-06
   1      7    11.635     5.382    0.22E-03    0.25E-03    0.26E-06
 Optimization of the real space projectors (new method)

 maximal supplied QI-value         = 34.20
 optimisation between [QCUT,QGAM] = [ 11.63, 23.26] = [ 37.87,151.49] Ry 
 Optimized for a Real-space Cutoff    1.21 Angstroem

   l    n(q)    QCUT    max X(q) W(low)/X(q) W(high)/X(q)  e(spline) 
   0      8    11.629    19.460    0.17E-03    0.34E-03    0.21E-06
   0      8    11.629    12.209    0.16E-03    0.33E-03    0.21E-06
   1      8    11.629     4.655    0.18E-03    0.16E-03    0.26E-06

 ----------------------------------------------------------------------------- 
|                                                                             |
|  ADVICE TO THIS USER RUNNING 'VASP/VAMP'   (HEAR YOUR MASTER'S VOICE ...):  |
|                                                                             |
|      You enforced a specific xc-type in the INCAR file,                     |
|      a different type was found on the POTCAR file                          |
|          I HOPE YOU KNOW, WHAT YOU ARE  DOING                               |
|                                                                             |
 ----------------------------------------------------------------------------- 

  PAW_PBE Mg 13Apr2007                  :
 energy of atom  1       EATOM=  -23.0369
 kinetic energy error for atom=    0.0000 (will be added to EATOM!!)
  PAW_PBE O 08Apr2002                   :
 energy of atom  2       EATOM= -432.3788
 kinetic energy error for atom=    0.0208 (will be added to EATOM!!)
  PAW_PBE H 15Jun2001                   :
 energy of atom  3       EATOM=  -12.4884
 kinetic energy error for atom=    0.0014 (will be added to EATOM!!)
 
 
 POSCAR: Mg   O    H                             
  positions in direct lattice
  velocities in cartesian coordinates
 exchange correlation table for  LEXCH =       42
   RHO(1)=    0.500       N(1)  =     2000
   RHO(2)=  100.500       N(2)  =     4000

 VTST: version 3.2, (02/03/18)

 CHAIN: initializing optimizer
 
 OPT: Using VASP Dynamics algorithm
 CHAIN: Read ICHAIN            0
 
 POSCAR: Mg   O    H                             
  positions in direct lattice
  velocities in cartesian coordinates
 


--------------------------------------------------------------------------------------------------------


 ion  position               nearest neighbor table
   1  0.000  0.000  0.000-   7 3.19  25 3.19  19 3.19  10 3.19   4 3.19  13 3.19  44 3.19  32 3.19
                            28 3.19
   2  0.998  0.998  0.158-  33 3.08  29 3.11  44 3.14  32 3.15  28 3.16  26 3.16  20 3.17  14 3.18
                             8 3.19   5 3.19  11 3.19  45 3.25
   3  1.000  0.003  0.331-  46 2.14  15 3.12   9 3.20  12 3.21  27 3.23  21 3.25   6 3.25  45 3.48
                            29 3.58  33 3.65
   4  0.000  0.333  0.000-  22 3.19  13 3.19  19 3.19  16 3.19   1 3.19   7 3.19  40 3.19  30 3.19
                            28 3.19
   5  0.999  0.333  0.157-  40 3.13  28 3.13  30 3.13  29 3.15  41 3.15  31 3.18  17 3.18   8 3.18
                            14 3.18   2 3.19  23 3.19  20 3.20
   6  0.988  0.330  0.310-  41 3.05  31 3.05  29 3.09  21 3.13  24 3.13  15 3.19   9 3.22  18 3.25
                             3 3.25
   7  0.000  0.667  0.000-   1 3.19  10 3.19  25 3.19  16 3.19  22 3.19   4 3.19  42 3.19  32 3.19
                            30 3.19
   8  0.998  0.665  0.158-  33 3.10  42 3.13  30 3.14  32 3.15  26 3.16  31 3.17  23 3.17  17 3.18
                             5 3.18   2 3.19  11 3.19  43 3.33
   9  0.999  0.672  0.314-  43 3.04  18 3.08  12 3.11  33 3.14  31 3.16   3 3.20   6 3.22  27 3.28
                            24 3.36
  10  0.333  0.000  0.000-  16 3.19   7 3.19  19 3.19   1 3.19  22 3.19  13 3.19  32 3.19  34 3.19
                            38 3.19
  11  0.332  0.998  0.157-  32 3.12  38 3.12  34 3.13  33 3.14  35 3.17  17 3.17  14 3.18  39 3.19
                             8 3.19  20 3.19   2 3.19  23 3.20
  12  0.324  0.998  0.309-  33 3.03  35 3.03  39 3.06   9 3.11  15 3.15  24 3.17  18 3.17   3 3.21
                            21 3.23
  13  0.333  0.333  0.000-  22 3.19   4 3.19  10 3.19   1 3.19  25 3.19  16 3.19  28 3.19  36 3.19
                            34 3.19
  14  0.331  0.331  0.157-  28 3.11  34 3.12  36 3.13  37 3.13  35 3.15  29 3.18  11 3.18  23 3.18
                             5 3.18   2 3.18  17 3.20  26 3.21
  15  0.319  0.324  0.312-  61 1.91  29 3.04  35 3.11   3 3.12  12 3.15  37 3.16   6 3.19  24 3.31
                            27 3.32  18 3.38
  16  0.333  0.667  0.000-  10 3.19  19 3.19   7 3.19  25 3.19   4 3.19  13 3.19  38 3.19  30 3.19
                            36 3.19
  17  0.331  0.666  0.158-  37 3.11  39 3.12  30 3.13  31 3.14  38 3.15  36 3.15  11 3.17   5 3.18
                             8 3.18  20 3.18  14 3.20  26 3.22
  18  0.314  0.669  0.330-  61 1.92  51 2.13   9 3.08  12 3.17   6 3.25  27 3.29  21 3.30  15 3.38
                            31 3.49  39 3.55
  19  0.667  0.000  0.000-  25 3.19  16 3.19   1 3.19  10 3.19   4 3.19  22 3.19  38 3.19  44 3.19
                            40 3.19
  20  0.665  0.997  0.158-  41 3.11  44 3.13  38 3.13  40 3.15  39 3.16   2 3.17  26 3.18  17 3.18
                            11 3.19   5 3.20  23 3.21  45 3.29
  21  0.663  0.000  0.314-  45 3.06  24 3.07  39 3.13   6 3.13  41 3.14  27 3.18  12 3.23   3 3.25
                            18 3.30
  22  0.667  0.333  0.000-  13 3.19   4 3.19  10 3.19  25 3.19   7 3.19  19 3.19  34 3.19  42 3.19
                            40 3.19
  23  0.666  0.334  0.159-  41 3.09  35 3.11  34 3.16  42 3.16  26 3.17   8 3.17  40 3.17  14 3.18
                             5 3.19  11 3.20  20 3.21  43 3.23
  24  0.658  0.316  0.326-  49 2.07  21 3.07   6 3.13  12 3.17  15 3.31  43 3.36   9 3.36  27 3.38
                            35 3.44  41 3.45
  25  0.667  0.667  0.000-   1 3.19  19 3.19   7 3.19  16 3.19  22 3.19  13 3.19  36 3.19  42 3.19
                            44 3.19
  26  0.668  0.666  0.159-  37 3.09   8 3.16  42 3.16   2 3.16  23 3.17  44 3.17  36 3.17  20 3.18
                            14 3.21  45 3.21  17 3.22  43 3.25
  27  0.658  0.669  0.329-  61 1.98  50 1.98  21 3.18   3 3.23   9 3.28  18 3.29  15 3.32  24 3.38
                            45 3.38  43 3.43  37 3.56
  28  0.111  0.222  0.080-  14 3.11   5 3.13   2 3.16  44 3.19  32 3.19  40 3.19  34 3.19  36 3.19
                            30 3.19   1 3.19  13 3.19   4 3.19
  29  0.106  0.217  0.236-  15 3.04   6 3.09   2 3.11   5 3.15  33 3.17  14 3.18  45 3.18  41 3.20
                            35 3.20  31 3.21  37 3.22   3 3.58
  30  0.111  0.556  0.080-  17 3.13   5 3.13   8 3.14  32 3.19  42 3.19  38 3.19  40 3.19  36 3.19
                            28 3.19  16 3.19   7 3.19   4 3.19
  31  0.113  0.557  0.237-   6 3.05  39 3.12  17 3.14   9 3.16  37 3.16   8 3.17   5 3.18  33 3.18
                            29 3.21  41 3.25  43 3.26  18 3.49
  32  0.111  0.889  0.080-  11 3.12   8 3.15   2 3.15  28 3.19  34 3.19  44 3.19  30 3.19  42 3.19
                            38 3.19  10 3.19   1 3.19   7 3.19
  33  0.105  0.886  0.234-  12 3.03   2 3.08   8 3.10  45 3.13   9 3.14  11 3.14  29 3.17  31 3.18
                            43 3.23  35 3.24  39 3.24   3 3.65
  34  0.444  0.222  0.080-  14 3.12  11 3.13  23 3.16  38 3.19  40 3.19  32 3.19  42 3.19  28 3.19
                            36 3.19  22 3.19  10 3.19  13 3.19
  35  0.444  0.224  0.236-  12 3.03  43 3.11  15 3.11  23 3.11  14 3.15  41 3.16  37 3.16  11 3.17
                            29 3.20  33 3.24  39 3.26  24 3.44
  36  0.444  0.556  0.080-  14 3.13  17 3.15  26 3.17  42 3.19  38 3.19  44 3.19  30 3.19  28 3.19
                            34 3.19  25 3.19  13 3.19  16 3.19
  37  0.443  0.554  0.235-  26 3.09  17 3.11  39 3.13  14 3.13  43 3.15  15 3.16  31 3.16  35 3.16
                            45 3.17  29 3.22  27 3.56
  38  0.444  0.889  0.080-  11 3.12  20 3.13  17 3.15  40 3.19  34 3.19  44 3.19  36 3.19  30 3.19
                            32 3.19  19 3.19  16 3.19  10 3.19
  39  0.442  0.882  0.236-  12 3.06  17 3.12  31 3.12  21 3.13  37 3.13  20 3.16  41 3.18  11 3.19
                            45 3.20  33 3.24  35 3.26  18 3.55
  40  0.778  0.222  0.080-   5 3.13  20 3.15  23 3.17  38 3.19  34 3.19  44 3.19  28 3.19  30 3.19
                            42 3.19   4 3.19  19 3.19  22 3.19
  41  0.771  0.218  0.235-   6 3.05  23 3.09  20 3.11  21 3.14   5 3.15  35 3.16  39 3.18  43 3.18
                            29 3.20  45 3.24  31 3.25  24 3.45
  42  0.778  0.556  0.080-   8 3.13  26 3.16  23 3.16  36 3.19  44 3.19  30 3.19  32 3.19  34 3.19
                            40 3.19  25 3.19   7 3.19  22 3.19
  43  0.768  0.548  0.242-   9 3.04  35 3.11  37 3.15  45 3.15  41 3.18  33 3.23  23 3.23  26 3.25
                            31 3.26   8 3.33  24 3.36  27 3.43
  44  0.778  0.889  0.080-  20 3.13   2 3.14  26 3.17  28 3.19  40 3.19  42 3.19  32 3.19  38 3.19
                            36 3.19   1 3.19  19 3.19  25 3.19
  45  0.777  0.883  0.241-  21 3.06  33 3.13  43 3.15  37 3.17  29 3.18  39 3.20  26 3.21  41 3.24
                             2 3.25  20 3.29  27 3.38   3 3.48
  46  0.995  0.010  0.396-  53 0.98  52 1.00   3 2.14
  47  0.280  0.965  0.413-  54 0.98  55 1.00
  48  0.904  0.243  0.413-  56 0.98  57 1.00
  49  0.633  0.344  0.388-  59 0.98  58 1.09  24 2.07
  50  0.645  0.613  0.388-  60 0.97  27 1.98
  51  0.322  0.686  0.396-  63 0.98  62 0.99  18 2.13
  52  0.973  0.093  0.408-  46 1.00
  53  0.085  0.011  0.411-  46 0.98
  54  0.380  0.070  0.412-  47 0.98
  55  0.245  0.944  0.383-  47 1.00
  56  0.999  0.351  0.410-  48 0.98
  57  0.860  0.218  0.385-  48 1.00
  58  0.641  0.461  0.392-  49 1.09
  59  0.712  0.338  0.406-  49 0.98
  60  0.729  0.694  0.405-  50 0.97
  61  0.420  0.543  0.330-  15 1.91  18 1.92  27 1.98
  62  0.319  0.781  0.407-  51 0.99
  63  0.410  0.678  0.409-  51 0.98
 
  LATTYP: Found a hexagonal cell.
 ALAT       =     9.5557527542
 C/A-ratio  =     3.4141837076
  
  Lattice vectors:
  
 A1 = (   9.5557527542,   0.0000000000,   0.0000000000)
 A2 = (  -4.7778763771,   8.2755246374,   0.0000000000)
 A3 = (   0.0000000000,   0.0000000000,  32.6250953674)


Analysis of symmetry for initial positions (statically):
=====================================================================
 Subroutine PRICEL returns:
 Original cell was already a primitive cell.
 

 Routine SETGRP: Setting up the symmetry group for a 
 hexagonal supercell.


 Subroutine GETGRP returns: Found  1 space group operations
 (whereof  1 operations were pure point group operations)
 out of a pool of 24 trial point group operations.


The static configuration has the point symmetry C_1 .


Analysis of symmetry for dynamics (positions and initial velocities):
=====================================================================
 Subroutine PRICEL returns:
 Original cell was already a primitive cell.
 

 Routine SETGRP: Setting up the symmetry group for a 
 hexagonal supercell.


 Subroutine GETGRP returns: Found  1 space group operations
 (whereof  1 operations were pure point group operations)
 out of a pool of 24 trial point group operations.


The dynamic configuration has the point symmetry C_1 .


Analysis of constrained symmetry for selective dynamics:
=====================================================================
 Subroutine PRICEL returns:
 Original cell was already a primitive cell.
 

 Routine SETGRP: Setting up the symmetry group for a 
 hexagonal supercell.


 Subroutine GETGRP returns: Found  1 space group operations
 (whereof  1 operations were pure point group operations)
 out of a pool of 24 trial point group operations.


The constrained configuration has the point symmetry C_1 .


 Subroutine INISYM returns: Found  1 space group operations
 (whereof  1 operations are pure point group operations),
 and found     1 'primitive' translations

 
 
 KPOINTS: Auto                                    

Automatic generation of k-mesh.
Space group operators:
 irot       det(A)        alpha          n_x          n_y          n_z        tau_x        tau_y        tau_z
    1     1.000000     0.000000     1.000000     0.000000     0.000000     0.000000     0.000000     0.000000
 
 Subroutine IBZKPT returns following result:
 ===========================================
 
 Found      5 irreducible k-points:
 
 Following reciprocal coordinates:
            Coordinates               Weight
  0.000000  0.000000  0.000000      1.000000
  0.333333 -0.000000  0.000000      2.000000
  0.000000  0.333333  0.000000      2.000000
  0.333333  0.333333  0.000000      2.000000
 -0.333333  0.333333  0.000000      2.000000
 
 Following cartesian coordinates:
            Coordinates               Weight
  0.000000  0.000000  0.000000      1.000000
  0.034883  0.020140  0.000000      2.000000
  0.000000  0.040279  0.000000      2.000000
  0.034883  0.060419  0.000000      2.000000
 -0.034883  0.020140  0.000000      2.000000
 
 TETIRR: Found     24 inequivalent tetrahedra from       54


--------------------------------------------------------------------------------------------------------




 Dimension of arrays:
   k-points           NKPTS =      5   k-points in BZ     NKDIM =      5   number of bands    NBANDS=    102
   number of dos      NEDOS =    301   number of ions     NIONS =     63
   non local maximal  LDIM  =      5   non local SUM 2l+1 LMDIM =     13
   total plane-waves  NPLWV = ******
   max r-space proj   IRMAX =   4509   max aug-charges    IRDMAX=  21536
   dimension x,y,z NGX =    72 NGY =   72 NGZ =  250
   dimension x,y,z NGXF=   144 NGYF=  144 NGZF=  500
   support grid    NGXF=   144 NGYF=  144 NGZF=  500
   ions per type =              45   6  12
   NGX,Y,Z   is equivalent  to a cutoff of  12.53, 12.53, 12.74 a.u.
   NGXF,Y,Z  is equivalent  to a cutoff of  25.05, 25.05, 25.48 a.u.

 SYSTEM =  Mg_slab_in_a_box                        
 POSCAR =  Mg   O    H                             

 Startparameter for this run:
   NWRITE =      2    write-flag & timer
   PREC   = accura    normal or accurate (medium, high low for compatibility)
   ISTART =      0    job   : 0-new  1-cont  2-samecut
   ICHARG =      2    charge: 1-file 2-atom 10-const
   ISPIN  =      1    spin polarized calculation?
   LNONCOLLINEAR =      F non collinear calculations
   LSORBIT =      F    spin-orbit coupling
   INIWAV =      1    electr: 0-lowe 1-rand  2-diag
   LASPH  =      T    aspherical Exc in radial PAW
   METAGGA=      F    non-selfconsistent MetaGGA calc.

 Electronic Relaxation 1
   ENCUT  =  520.0 eV  38.22 Ry    6.18 a.u.  17.77 17.77 60.66*2*pi/ulx,y,z
   ENINI  =  520.0     initial cutoff
   ENAUG  =  605.4 eV  augmentation charge cutoff
   NELM   =    300;   NELMIN=  6; NELMDL=-12     # of ELM steps 
   EDIFF  = 0.5E-05   stopping-criterion for ELM
   LREAL  =      T    real-space projection
   NLSPLINE    = F    spline interpolate recip. space projectors
   LCOMPAT=      F    compatible to vasp.4.4
   GGA_COMPAT  = T    GGA compatible to vasp.4.4-vasp.4.6
   LMAXPAW     = -100 max onsite density
   LMAXMIX     =    2 max onsite mixed and CHGCAR
   VOSKOWN=      0    Vosko Wilk Nusair interpolation
   ROPT   =   -0.00025  -0.00025  -0.00025
 Ionic relaxation
   EDIFFG = 0.5E-04   stopping-criterion for IOM
   NSW    =      0    number of steps for IOM
   NBLOCK =      1;   KBLOCK =      1    inner block; outer block 
   IBRION =     -1    ionic relax: 0-MD 1-quasi-New 2-CG
   NFREE  =      0    steps in history (QN), initial steepest desc. (CG)
   ISIF   =      2    stress and relaxation
   IWAVPR =     10    prediction:  0-non 1-charg 2-wave 3-comb
   ISYM   =      2    0-nonsym 1-usesym 2-fastsym
   LCORR  =      T    Harris-Foulkes like correction to forces

   POTIM  = 0.5000    time-step for ionic-motion
   TEIN   =    0.0    initial temperature
   TEBEG  =    0.0;   TEEND  =   0.0 temperature during run
   SMASS  =  -3.00    Nose mass-parameter (am)
   estimated Nose-frequenzy (Omega)   =  0.10E-29 period in steps =****** mass=  -0.209E-26a.u.
   SCALEE = 1.0000    scale energy and forces
   NPACO  =    256;   APACO  = 16.0  distance and # of slots for P.C.
   PSTRESS=    0.0 pullay stress

  Mass of Ions in am
   POMASS =  24.30 16.00  1.00
  Ionic Valenz
   ZVAL   =   2.00  6.00  1.00
  Atomic Wigner-Seitz radii
   RWIGS  =  -1.00 -1.00 -1.00
  virtual crystal weights 
   VCA    =   1.00  1.00  1.00
   NELECT =     138.0000    total number of electrons
   NUPDOWN=      -1.0000    fix difference up-down

 DOS related values:
   EMIN   =  10.00;   EMAX   =-10.00  energy-range for DOS
   EFERMI =   0.00
   ISMEAR =    -5;   SIGMA  =   0.20  broadening in eV -4-tet -1-fermi 0-gaus

 Electronic relaxation 2 (details)
   IALGO  =     48    algorithm
   LDIAG  =      T    sub-space diagonalisation (order eigenvalues)
   LSUBROT=      F    optimize rotation matrix (better conditioning)
   TURBO    =      0    0=normal 1=particle mesh
   IRESTART =      0    0=no restart 2=restart with 2 vectors
   NREBOOT  =      0    no. of reboots
   NMIN     =      0    reboot dimension
   EREF     =   0.00    reference energy to select bands
   IMIX   =      4    mixing-type and parameters
     AMIX     =   0.40;   BMIX     =  1.00
     AMIX_MAG =   1.60;   BMIX_MAG =  1.00
     AMIN     =   0.10
     WC   =   100.;   INIMIX=   1;  MIXPRE=   1;  MAXMIX= -45

 Intra band minimization:
   WEIMIN = 0.0000     energy-eigenvalue tresh-hold
   EBREAK =  0.12E-07  absolut break condition
   DEPER  =   0.30     relativ break condition  

   TIME   =   0.40     timestep for ELM

  volume/ion in A,a.u.               =      40.95       276.36
  Fermi-wavevector in a.u.,A,eV,Ry     =   0.616828  1.165635  5.176694  0.380476
  Thomas-Fermi vector in A             =   1.674695
 
 Write flags
   LWAVE        =      F    write WAVECAR
   LDOWNSAMPLE  =      F    k-point downsampling of WAVECAR
   LCHARG       =      T    write CHGCAR
   LVTOT        =      F    write LOCPOT, total local potential
   LVHAR        =      T    write LOCPOT, Hartree potential only
   LELF         =      F    write electronic localiz. function (ELF)
   LORBIT       =      0    0 simple, 1 ext, 2 COOP (PROOUT), +10 PAW based schemes


 Dipole corrections
   LMONO  =      F    monopole corrections only (constant potential shift)
   LDIPOL =      T    correct potential (dipole corrections)
   IDIPOL =      3    1-x, 2-y, 3-z, 4-all directions 
   EPSILON=  1.0000000 bulk dielectric constant

 Exchange correlation treatment:
   GGA     =    BO    GGA type
   LEXCH   =    42    internal setting for exchange type
   VOSKOWN=      0    Vosko Wilk Nusair interpolation
   LHFCALC =     F    Hartree Fock is set to
   LHFONE  =     F    Hartree Fock one center treatment
   AEXX    =    0.0000 exact exchange contribution

 vdW DFT:
   LUSE_VDW   =     T    switch on vdW DFT
   Zab_VDW    =-.8491    correlation parameter
   PARAM1     =0.1833
   PARAM2     =0.2200
   PARAM3     =0.0000
   -- rVV10 --
   BPARAM     = 6.3000
   CPARAM     = 0.0093

 Linear response parameters
   LEPSILON=     F    determine dielectric tensor
   LRPA    =     F    only Hartree local field effects (RPA)
   LNABLA  =     F    use nabla operator in PAW spheres
   LVEL    =     F    velocity operator in full k-point grid
   LINTERFAST=   F  fast interpolation
   KINTER  =     0    interpolate to denser k-point grid
   CSHIFT  =0.1000    complex shift for real part using Kramers Kronig
   OMEGAMAX=  -1.0    maximum frequency
   DEG_THRESHOLD= 0.2000000E-02 threshold for treating states as degnerate
   RTIME   =   -0.100 relaxation time in fs
  (WPLASMAI=    0.000 imaginary part of plasma frequency in eV, 0.658/RTIME)
   DFIELD  = 0.0000000 0.0000000 0.0000000 field for delta impulse in time
 
 Orbital magnetization related:
   ORBITALMAG=     F  switch on orbital magnetization
   LCHIMAG   =     F  perturbation theory with respect to B field
   DQ        =  0.001000  dq finite difference perturbation B field
   LLRAUG    =     F  two centre corrections for induced B field



--------------------------------------------------------------------------------------------------------


 Static calculation
 charge density and potential will be updated during run
 non-spin polarized calculation
 RMM-DIIS sequential band-by-band
 perform sub-space diagonalisation
    before iterative eigenvector-optimisation
 modified Broyden-mixing scheme, WC =      100.0
 initial mixing is a Kerker type mixing with AMIX =  0.4000 and BMIX =      1.0000
 Hartree-type preconditioning will be used
 using additional bands           33
 real space projection scheme for non local part
 use partial core corrections
 calculate Harris-corrections to forces 
   (improved forces if not selfconsistent)
 use gradient corrections 
 use of overlap-Matrix (Vanderbilt PP)
 Fermi weights with tetrahedron method with Bloechl corrections


--------------------------------------------------------------------------------------------------------


  energy-cutoff  :      520.00
  volume of cell :     2579.96
      direct lattice vectors                 reciprocal lattice vectors
     9.555752754  0.000000000  0.000000000     0.104649003  0.060419130  0.000000000
    -4.777876377  8.275524637  0.000000000     0.000000000  0.120838260  0.000000000
     0.000000000  0.000000000 32.625095367     0.000000000  0.000000000  0.030651251

  length of vectors
     9.555752754  9.555752754 32.625095367     0.120838260  0.120838260  0.030651251


 
 k-points in units of 2pi/SCALE and weight: Auto                                    
   0.00000000  0.00000000  0.00000000       0.111
   0.03488300  0.02013971  0.00000000       0.222
   0.00000000  0.04027942  0.00000000       0.222
   0.03488300  0.06041913  0.00000000       0.222
  -0.03488300  0.02013971  0.00000000       0.222
 
 k-points in reciprocal lattice and weights: Auto                                    
   0.00000000  0.00000000  0.00000000       0.111
   0.33333333 -0.00000000  0.00000000       0.222
   0.00000000  0.33333333  0.00000000       0.222
   0.33333333  0.33333333  0.00000000       0.222
  -0.33333333  0.33333333  0.00000000       0.222
 
 position of ions in fractional coordinates (direct lattice) 
   0.00000000  0.00000000  0.00000000
   0.99764876  0.99829861  0.15812519
   0.99971380  0.00290886  0.33091279
   0.00000001  0.33333336  0.00000000
   0.99899076  0.33261417  0.15749120
   0.98827860  0.33027462  0.31041080
   0.00000002  0.66666672  0.00000000
   0.99760260  0.66487610  0.15773479
   0.99875201  0.67232739  0.31393229
   0.33333334  0.00000000  0.00000000
   0.33192496  0.99837178  0.15720926
   0.32409783  0.99753723  0.30872357
   0.33333335  0.33333336  0.00000000
   0.33127952  0.33103253  0.15694935
   0.31866712  0.32401571  0.31174748
   0.33333336  0.66666672  0.00000000
   0.33103594  0.66588171  0.15795044
   0.31419025  0.66919983  0.33048248
   0.66666668  0.00000000  0.00000000
   0.66544826  0.99735263  0.15765655
   0.66340035  0.00034842  0.31384342
   0.66666668  0.33333336  0.00000000
   0.66563522  0.33378794  0.15879373
   0.65775387  0.31584677  0.32590058
   0.66666670  0.66666672  0.00000000
   0.66799639  0.66619340  0.15889050
   0.65827270  0.66929576  0.32881282
   0.11111113  0.22222222  0.07982145
   0.10583686  0.21744197  0.23573110
   0.11111114  0.55555561  0.07982145
   0.11279400  0.55677355  0.23658367
   0.11111116  0.88888894  0.07982145
   0.10491255  0.88566969  0.23438945
   0.44444450  0.22222222  0.07982145
   0.44382072  0.22384403  0.23571221
   0.44444450  0.55555561  0.07982145
   0.44252082  0.55436737  0.23450897
   0.44444451  0.88888894  0.07982145
   0.44175811  0.88168377  0.23617868
   0.77777779  0.22222222  0.07982145
   0.77118327  0.21774407  0.23482956
   0.77777781  0.55555561  0.07982145
   0.76810412  0.54828516  0.24159029
   0.77777784  0.88888894  0.07982145
   0.77674979  0.88255266  0.24062267
   0.99521463  0.01004538  0.39633634
   0.27966272  0.96502458  0.41271323
   0.90415999  0.24272811  0.41316636
   0.63292088  0.34400658  0.38800297
   0.64539696  0.61250794  0.38766187
   0.32180359  0.68630462  0.39566499
   0.97331874  0.09306714  0.40825279
   0.08493931  0.01102045  0.41137943
   0.37996252  0.07014328  0.41154945
   0.24517585  0.94371698  0.38342159
   0.99925330  0.35079701  0.41041844
   0.85974960  0.21793714  0.38472206
   0.64137513  0.46106099  0.39193485
   0.71157938  0.33765383  0.40594567
   0.72909891  0.69399582  0.40510914
   0.41956793  0.54293780  0.33048466
   0.31928396  0.78066850  0.40745009
   0.40955520  0.67759629  0.40871504
 
 position of ions in cartesian coordinates  (Angst):
   0.00000000  0.00000000  0.00000000
   4.76353751  8.26144472  5.15884934
   9.53911968  0.02407236 10.79606123
  -1.59262550  2.75850844  0.00000000
   7.95691931  2.75255673  5.13816552
   7.86573468  2.73319578 10.12718187
  -3.18525100  5.51701689  0.00000000
   6.35614797  5.50219855  5.14611271
   6.33153010  5.56386189 10.24207080
   3.18525100  0.00000000  0.00000000
  -1.59830410  8.26205024  5.12896720
  -1.66911085  8.25514389 10.07213595
   1.59262550  2.75850844  0.00000000
   1.58399270  2.73946787  5.12048750
   1.49699718  2.68139997 10.17079121
  -0.00000001  5.51701689  0.00000000
  -0.01820295  5.51052053  5.15314806
  -0.19502974  5.53797970 10.78202232
   6.37050200  0.00000000  0.00000000
   1.59363151  8.25361623  5.14356007
   6.33762503  0.00288334 10.23917138
   4.77787638  2.75850844  0.00000000
   4.76584806  2.76227031  5.18066052
   4.77625652  2.61379769 10.63253749
   3.18525100  5.51701689  0.00000000
   3.20021868  5.51309989  5.18381783
   3.09247873  5.53877359 10.72754966
   0.00000017  1.83900547  2.60418248
  -0.02755995  1.79944635  7.69074970
  -1.59262550  4.59751415  2.60418248
  -1.58236363  4.60759322  7.71856474
  -3.18525076  7.35602236  2.60418248
  -3.22910195  7.32938135  7.64697820
   3.18525147  1.83900547  2.60418248
   3.17154199  1.85242680  7.69013327
   1.59262574  4.59751415  2.60418248
   1.57992079  4.58768079  7.65087751
   0.00000039  7.35602236  2.60418248
   0.00875524  7.29639575  7.70535210
   6.37050200  1.83900547  2.60418248
   6.32888241  1.80194643  7.66133668
   4.77787638  4.59751415  2.60418248
   4.72017440  4.53734733  7.88190609
   3.18525124  7.35602236  2.60418248
   3.20570143  7.30358632  7.85033752
   9.46202939  0.08313076 12.93051075
  -1.93838034  7.98608473 13.46480852
   7.48020442  2.00870247 13.47959188
   4.40441449  2.84683493 12.65863395
   3.24076660  5.06882455 12.64750542
  -0.20400310  5.67953081 12.90860798
   8.85612995  0.77017943 13.31928615
   0.75900468  0.09119998 13.42129314
   3.29569197  0.58047244 13.42683990
  -2.16612325  7.80975309 12.50916591
   7.87255274  2.90302933 13.38994083
   7.17427792  1.80354414 12.55159384
   3.92592974  3.81552157 12.78691170
   5.18640834  2.79426258 13.24401625
   3.65126269  5.74317949 13.21672448
   1.41519775  4.49309511 10.78209356
  -0.67893898  6.46044138 13.29309794
   0.67613691  5.60746478 13.33436701
 


--------------------------------------------------------------------------------------------------------


 k-point  1 :   0.0000 0.0000 0.0000  plane waves:   69403
 k-point  2 :   0.3333-0.0000 0.0000  plane waves:   69509
 k-point  3 :   0.0000 0.3333 0.0000  plane waves:   69509
 k-point  4 :   0.3333 0.3333 0.0000  plane waves:   69474
 k-point  5 :  -0.3333 0.3333 0.0000  plane waves:   69509

 maximum and minimum number of plane-waves per node :      2924     2870

 maximum number of plane-waves:     69509
 maximum index in each direction: 
   IXMAX=   18   IYMAX=   17   IZMAX=   60
   IXMIN=  -18   IYMIN=  -18   IZMIN=  -60


 real space projection operators:
  total allocation   :      22587.60 KBytes
  max/ min on nodes  :       1319.26        525.19


 parallel 3D FFT for wavefunctions:
    minimum data exchange during FFTs selected (reduces bandwidth)
 parallel 3D FFT for charge:
    minimum data exchange during FFTs selected (reduces bandwidth)


 total amount of memory used by VASP MPI-rank0    62235. kBytes
=======================================================================

   base      :      30000. kBytes
   nonlr-proj:       6332. kBytes
   fftplans  :       6459. kBytes
   grid      :      11407. kBytes
   one-center:         24. kBytes
   wavefun   :       8013. kBytes
 
     INWAV:  cpu time    0.0001: real time    0.0012
 Broyden mixing: mesh for mixing (old mesh)
   NGX = 35   NGY = 35   NGZ =121
  (NGX  =144   NGY  =144   NGZ  =500)
  gives a total of 148225 points

 initial charge density was supplied:
 charge density of overlapping atoms calculated
 number of electron     138.0000000 magnetization 
 keeping initial charge density in first step


--------------------------------------------------------------------------------------------------------


 Maximum index for non-local projection operator          297
 Maximum index for augmentation-charges          837 (set IRDMAX)


--------------------------------------------------------------------------------------------------------


 First call to EWALD:  gamma=   0.129
 Maximum number of real-space cells 4x 4x 1
 Maximum number of reciprocal cells 2x 2x 6

    FEWALD:  cpu time    0.0075: real time    0.0075


--------------------------------------- Iteration      1(   1)  ---------------------------------------


vdW kernel read from vdw_kernel.bindat
  0.0000  0.2424  0.5071  0.7962  1.1119  1.4567  1.8333  2.2446  2.6937  3.1842
  3.7199  4.3049  4.9438  5.6415  6.4036  7.2358  8.1446  9.1372 10.2212 11.4050
 12.6979 14.1099 15.6519 17.3360 19.1751 21.1837 23.3773 25.7729 28.3892 31.2465
 34.3669 37.7748 41.4965 45.5611 50.0000
 
    POTLOK:  cpu time    6.9340: real time    7.1501
    SETDIJ:  cpu time    0.2691: real time    0.2692
    EDDIAG:  cpu time    0.5750: real time    0.5761
  RMM-DIIS:  cpu time    1.0527: real time    1.0533
    ORTHCH:  cpu time    0.0717: real time    0.0717
 BZINTS: Fermi energy:  9.582757;138.000000 electrons
         Band energy: 213.026473;  BLOECHL correction: -0.161272
       DOS:  cpu time    0.0026: real time    0.0026
    --------------------------------------------
      LOOP:  cpu time    8.9051: real time    9.1231

 eigenvalue-minimisations  :   510
 total energy-change (2. order) : 0.1241799E+04  (-0.2793192E+04)
 number of electron     138.0000000 magnetization 
 augmentation part      138.0000000 magnetization 

 DIPCOR: dipole corrections for dipol
 direction  3 min pos   356,
 dipolmoment           0.000000      0.000000     -0.000387 electrons x Angstroem
 Tr[quadrupol]     -1880.318578

 energy correction for charged system         0.000000 eV
 dipol+quadrupol energy correction           -0.000000 eV
 added-field ion interaction          0.003924 eV  (added to PSCEN)


 Free energy of the ion-electron system (eV)
  ---------------------------------------------------
  alpha Z        PSCENC =        63.16498729
  Ewald energy   TEWEN  =     12969.93283901
  -Hartree energ DENC   =    -16197.30783385
  -exchange      EXHF   =         0.00000000
  -V(xc)+E(xc)   XCENC  =     -2051.15114997
  PAW double counting   =      5135.15659847    -2719.01140655
  entropy T*S    EENTRO =         0.00000000
  eigenvalues    EBANDS =       213.02647284
  atomic energy  EATOM  =      3827.98814510
  Solvation  Ediel_sol  =         0.00000000
  ---------------------------------------------------
  free energy    TOTEN  =      1241.79865234 eV

  energy without entropy =     1241.79865234  energy(sigma->0) =     1241.79865234


--------------------------------------------------------------------------------------------------------




--------------------------------------- Iteration      1(   2)  ---------------------------------------


    EDDIAG:  cpu time    0.6574: real time    0.6813
  RMM-DIIS:  cpu time    1.2894: real time    1.2900
    ORTHCH:  cpu time    0.0715: real time    0.0715
 BZINTS: Fermi energy:  2.112063;138.000000 electrons
         Band energy:-484.308597;  BLOECHL correction: -0.222806
       DOS:  cpu time    0.0033: real time    0.0033
    --------------------------------------------
      LOOP:  cpu time    2.0215: real time    2.0461

 eigenvalue-minimisations  :   510
 total energy-change (2. order) :-0.6973351E+03  (-0.7563783E+03)
 number of electron     138.0000000 magnetization 
 augmentation part      138.0000000 magnetization 

 DIPCOR: dipole corrections for dipol
 direction  3 min pos   356,
 dipolmoment           0.000000      0.000000     -0.000387 electrons x Angstroem
 Tr[quadrupol]     -1880.318578

 energy correction for charged system         0.000000 eV
 dipol+quadrupol energy correction           -0.000000 eV
 added-field ion interaction          0.003924 eV  (added to PSCEN)


 Free energy of the ion-electron system (eV)
  ---------------------------------------------------
  alpha Z        PSCENC =        63.16498729
  Ewald energy   TEWEN  =     12969.93283901
  -Hartree energ DENC   =    -16197.30783385
  -exchange      EXHF   =         0.00000000
  -V(xc)+E(xc)   XCENC  =     -2051.15114997
  PAW double counting   =      5135.15659847    -2719.01140655
  entropy T*S    EENTRO =         0.00000000
  eigenvalues    EBANDS =      -484.30859692
  atomic energy  EATOM  =      3827.98814510
  Solvation  Ediel_sol  =         0.00000000
  ---------------------------------------------------
  free energy    TOTEN  =       544.46358258 eV

  energy without entropy =      544.46358258  energy(sigma->0) =      544.46358258


--------------------------------------------------------------------------------------------------------




--------------------------------------- Iteration      1(   3)  ---------------------------------------


    EDDIAG:  cpu time    0.6643: real time    0.6865
  RMM-DIIS:  cpu time    1.5267: real time    1.5291
    ORTHCH:  cpu time    0.0785: real time    0.0786
 BZINTS: Fermi energy:  0.379183;138.000000 electrons
         Band energy:-718.931858;  BLOECHL correction: -0.390858
       DOS:  cpu time    0.0030: real time    0.0030
    --------------------------------------------
      LOOP:  cpu time    2.2725: real time    2.2972

 eigenvalue-minimisations  :   510
 total energy-change (2. order) :-0.2346233E+03  (-0.2987800E+03)
 number of electron     138.0000000 magnetization 
 augmentation part      138.0000000 magnetization 

 DIPCOR: dipole corrections for dipol
 direction  3 min pos   356,
 dipolmoment           0.000000      0.000000     -0.000387 electrons x Angstroem
 Tr[quadrupol]     -1880.318578

 energy correction for charged system         0.000000 eV
 dipol+quadrupol energy correction           -0.000000 eV
 added-field ion interaction          0.003924 eV  (added to PSCEN)


 Free energy of the ion-electron system (eV)
  ---------------------------------------------------
  alpha Z        PSCENC =        63.16498729
  Ewald energy   TEWEN  =     12969.93283901
  -Hartree energ DENC   =    -16197.30783385
  -exchange      EXHF   =         0.00000000
  -V(xc)+E(xc)   XCENC  =     -2051.15114997
  PAW double counting   =      5135.15659847    -2719.01140655
  entropy T*S    EENTRO =         0.00000000
  eigenvalues    EBANDS =      -718.93185850
  atomic energy  EATOM  =      3827.98814510
  Solvation  Ediel_sol  =         0.00000000
  ---------------------------------------------------
  free energy    TOTEN  =       309.84032100 eV

  energy without entropy =      309.84032100  energy(sigma->0) =      309.84032100


--------------------------------------------------------------------------------------------------------




--------------------------------------- Iteration      1(   4)  ---------------------------------------


    EDDIAG:  cpu time    0.6615: real time    0.6858
  RMM-DIIS:  cpu time    1.3216: real time    1.3224
    ORTHCH:  cpu time    0.0887: real time    0.0887
 BZINTS: Fermi energy: -0.748048;138.000000 electrons
         Band energy:-890.639755;  BLOECHL correction: -0.072902
       DOS:  cpu time    0.0027: real time    0.0027
    --------------------------------------------
      LOOP:  cpu time    2.0745: real time    2.0996

 eigenvalue-minimisations  :   510
 total energy-change (2. order) :-0.1717079E+03  (-0.1478969E+03)
 number of electron     138.0000000 magnetization 
 augmentation part      138.0000000 magnetization 

 DIPCOR: dipole corrections for dipol
 direction  3 min pos   356,
 dipolmoment           0.000000      0.000000     -0.000387 electrons x Angstroem
 Tr[quadrupol]     -1880.318578

 energy correction for charged system         0.000000 eV
 dipol+quadrupol energy correction           -0.000000 eV
 added-field ion interaction          0.003924 eV  (added to PSCEN)


 Free energy of the ion-electron system (eV)
  ---------------------------------------------------
  alpha Z        PSCENC =        63.16498729
  Ewald energy   TEWEN  =     12969.93283901
  -Hartree energ DENC   =    -16197.30783385
  -exchange      EXHF   =         0.00000000
  -V(xc)+E(xc)   XCENC  =     -2051.15114997
  PAW double counting   =      5135.15659847    -2719.01140655
  entropy T*S    EENTRO =         0.00000000
  eigenvalues    EBANDS =      -890.63975450
  atomic energy  EATOM  =      3827.98814510
  Solvation  Ediel_sol  =         0.00000000
  ---------------------------------------------------
  free energy    TOTEN  =       138.13242500 eV

  energy without entropy =      138.13242500  energy(sigma->0) =      138.13242500


--------------------------------------------------------------------------------------------------------




--------------------------------------- Iteration      1(   5)  ---------------------------------------


    EDDIAG:  cpu time    0.5831: real time    0.6083
  RMM-DIIS:  cpu time    1.0533: real time    1.0540
    ORTHCH:  cpu time    0.0716: real time    0.0717
 BZINTS: Fermi energy: -1.284186;138.000000 electrons
         Band energy:***********;  BLOECHL correction: -0.143641
       DOS:  cpu time    0.0031: real time    0.0030
    --------------------------------------------
      LOOP:  cpu time    1.7111: real time    1.7370

 eigenvalue-minimisations  :   510
 total energy-change (2. order) :-0.1162817E+03  (-0.9282723E+02)
 number of electron     138.0000000 magnetization 
 augmentation part      138.0000000 magnetization 

 DIPCOR: dipole corrections for dipol
 direction  3 min pos   356,
 dipolmoment           0.000000      0.000000     -0.000387 electrons x Angstroem
 Tr[quadrupol]     -1880.318578

 energy correction for charged system         0.000000 eV
 dipol+quadrupol energy correction           -0.000000 eV
 added-field ion interaction          0.003924 eV  (added to PSCEN)


 Free energy of the ion-electron system (eV)
  ---------------------------------------------------
  alpha Z        PSCENC =        63.16498729
  Ewald energy   TEWEN  =     12969.93283901
  -Hartree energ DENC   =    -16197.30783385
  -exchange      EXHF   =         0.00000000
  -V(xc)+E(xc)   XCENC  =     -2051.15114997
  PAW double counting   =      5135.15659847    -2719.01140655
  entropy T*S    EENTRO =         0.00000000
  eigenvalues    EBANDS =     -1006.92145052
  atomic energy  EATOM  =      3827.98814510
  Solvation  Ediel_sol  =         0.00000000
  ---------------------------------------------------
  free energy    TOTEN  =        21.85072898 eV

  energy without entropy =       21.85072898  energy(sigma->0) =       21.85072898


--------------------------------------------------------------------------------------------------------




--------------------------------------- Iteration      1(   6)  ---------------------------------------


    EDDIAG:  cpu time    0.5573: real time    0.5819
  RMM-DIIS:  cpu time    1.0993: real time    1.1001
    ORTHCH:  cpu time    0.0716: real time    0.0716
 BZINTS: Fermi energy: -1.358064;138.000000 electrons
         Band energy:***********;  BLOECHL correction: -0.049008
       DOS:  cpu time    0.0029: real time    0.0029
    --------------------------------------------
      LOOP:  cpu time    1.7311: real time    1.7565

 eigenvalue-minimisations  :   510
 total energy-change (2. order) :-0.6399167E+02  (-0.4863328E+02)
 number of electron     138.0000000 magnetization 
 augmentation part      138.0000000 magnetization 

 DIPCOR: dipole corrections for dipol
 direction  3 min pos   356,
 dipolmoment           0.000000      0.000000     -0.000387 electrons x Angstroem
 Tr[quadrupol]     -1880.318578

 energy correction for charged system         0.000000 eV
 dipol+quadrupol energy correction           -0.000000 eV
 added-field ion interaction          0.003924 eV  (added to PSCEN)


 Free energy of the ion-electron system (eV)
  ---------------------------------------------------
  alpha Z        PSCENC =        63.16498729
  Ewald energy   TEWEN  =     12969.93283901
  -Hartree energ DENC   =    -16197.30783385
  -exchange      EXHF   =         0.00000000
  -V(xc)+E(xc)   XCENC  =     -2051.15114997
  PAW double counting   =      5135.15659847    -2719.01140655
  entropy T*S    EENTRO =         0.00000000
  eigenvalues    EBANDS =     -1070.91312092
  atomic energy  EATOM  =      3827.98814510
  Solvation  Ediel_sol  =         0.00000000
  ---------------------------------------------------
  free energy    TOTEN  =       -42.14094142 eV

  energy without entropy =      -42.14094142  energy(sigma->0) =      -42.14094142


--------------------------------------------------------------------------------------------------------




--------------------------------------- Iteration      1(   7)  ---------------------------------------


    EDDIAG:  cpu time    0.5281: real time    0.5527
  RMM-DIIS:  cpu time    1.0473: real time    1.0481
    ORTHCH:  cpu time    0.0715: real time    0.0716
 BZINTS: Fermi energy: -1.430520;138.000000 electrons
         Band energy:***********;  BLOECHL correction: -0.078864
       DOS:  cpu time    0.0033: real time    0.0033
    --------------------------------------------
      LOOP:  cpu time    1.6502: real time    1.6756

 eigenvalue-minimisations  :   510
 total energy-change (2. order) :-0.2805682E+02  (-0.2085274E+02)
 number of electron     138.0000000 magnetization 
 augmentation part      138.0000000 magnetization 

 DIPCOR: dipole corrections for dipol
 direction  3 min pos   356,
 dipolmoment           0.000000      0.000000     -0.000387 electrons x Angstroem
 Tr[quadrupol]     -1880.318578

 energy correction for charged system         0.000000 eV
 dipol+quadrupol energy correction           -0.000000 eV
 added-field ion interaction          0.003924 eV  (added to PSCEN)


 Free energy of the ion-electron system (eV)
  ---------------------------------------------------
  alpha Z        PSCENC =        63.16498729
  Ewald energy   TEWEN  =     12969.93283901
  -Hartree energ DENC   =    -16197.30783385
  -exchange      EXHF   =         0.00000000
  -V(xc)+E(xc)   XCENC  =     -2051.15114997
  PAW double counting   =      5135.15659847    -2719.01140655
  entropy T*S    EENTRO =         0.00000000
  eigenvalues    EBANDS =     -1098.96993792
  atomic energy  EATOM  =      3827.98814510
  Solvation  Ediel_sol  =         0.00000000
  ---------------------------------------------------
  free energy    TOTEN  =       -70.19775842 eV

  energy without entropy =      -70.19775842  energy(sigma->0) =      -70.19775842


--------------------------------------------------------------------------------------------------------




--------------------------------------- Iteration      1(   8)  ---------------------------------------


    EDDIAG:  cpu time    0.4858: real time    0.5083
  RMM-DIIS:  cpu time    1.0563: real time    1.0571
    ORTHCH:  cpu time    0.0710: real time    0.0710
 BZINTS: Fermi energy: -1.463456;138.000000 electrons
         Band energy:***********;  BLOECHL correction: -0.071472
       DOS:  cpu time    0.0029: real time    0.0029
    --------------------------------------------
      LOOP:  cpu time    1.6161: real time    1.6393

 eigenvalue-minimisations  :   510
 total energy-change (2. order) :-0.8032701E+01  (-0.6320384E+01)
 number of electron     138.0000000 magnetization 
 augmentation part      138.0000000 magnetization 

 DIPCOR: dipole corrections for dipol
 direction  3 min pos   356,
 dipolmoment           0.000000      0.000000     -0.000387 electrons x Angstroem
 Tr[quadrupol]     -1880.318578

 energy correction for charged system         0.000000 eV
 dipol+quadrupol energy correction           -0.000000 eV
 added-field ion interaction          0.003924 eV  (added to PSCEN)


 Free energy of the ion-electron system (eV)
  ---------------------------------------------------
  alpha Z        PSCENC =        63.16498729
  Ewald energy   TEWEN  =     12969.93283901
  -Hartree energ DENC   =    -16197.30783385
  -exchange      EXHF   =         0.00000000
  -V(xc)+E(xc)   XCENC  =     -2051.15114997
  PAW double counting   =      5135.15659847    -2719.01140655
  entropy T*S    EENTRO =         0.00000000
  eigenvalues    EBANDS =     -1107.00263898
  atomic energy  EATOM  =      3827.98814510
  Solvation  Ediel_sol  =         0.00000000
  ---------------------------------------------------
  free energy    TOTEN  =       -78.23045948 eV

  energy without entropy =      -78.23045948  energy(sigma->0) =      -78.23045948


--------------------------------------------------------------------------------------------------------




--------------------------------------- Iteration      1(   9)  ---------------------------------------


    EDDIAG:  cpu time    0.4869: real time    0.5115
  RMM-DIIS:  cpu time    2.7255: real time    2.7292
    ORTHCH:  cpu time    0.0716: real time    0.0717
 BZINTS: Fermi energy: -1.500634;138.000000 electrons
         Band energy:***********;  BLOECHL correction: -0.068198
       DOS:  cpu time    0.0030: real time    0.0030
    --------------------------------------------
      LOOP:  cpu time    3.2869: real time    3.3155

 eigenvalue-minimisations  :  1491
 total energy-change (2. order) :-0.2321606E+01  (-0.2219061E+01)
 number of electron     138.0000000 magnetization 
 augmentation part      138.0000000 magnetization 

 DIPCOR: dipole corrections for dipol
 direction  3 min pos   356,
 dipolmoment           0.000000      0.000000     -0.000387 electrons x Angstroem
 Tr[quadrupol]     -1880.318578

 energy correction for charged system         0.000000 eV
 dipol+quadrupol energy correction           -0.000000 eV
 added-field ion interaction          0.003924 eV  (added to PSCEN)


 Free energy of the ion-electron system (eV)
  ---------------------------------------------------
  alpha Z        PSCENC =        63.16498729
  Ewald energy   TEWEN  =     12969.93283901
  -Hartree energ DENC   =    -16197.30783385
  -exchange      EXHF   =         0.00000000
  -V(xc)+E(xc)   XCENC  =     -2051.15114997
  PAW double counting   =      5135.15659847    -2719.01140655
  entropy T*S    EENTRO =         0.00000000
  eigenvalues    EBANDS =     -1109.32424464
  atomic energy  EATOM  =      3827.98814510
  Solvation  Ediel_sol  =         0.00000000
  ---------------------------------------------------
  free energy    TOTEN  =       -80.55206514 eV

  energy without entropy =      -80.55206514  energy(sigma->0) =      -80.55206514


--------------------------------------------------------------------------------------------------------




--------------------------------------- Iteration      1(  10)  ---------------------------------------


    EDDIAG:  cpu time    0.4852: real time    0.5120
  RMM-DIIS:  cpu time    3.2850: real time    3.2980
    ORTHCH:  cpu time    0.0717: real time    0.0718
 BZINTS: Fermi energy: -1.504170;138.000000 electrons
         Band energy:***********;  BLOECHL correction: -0.065222
       DOS:  cpu time    0.0028: real time    0.0028
    --------------------------------------------
      LOOP:  cpu time    3.8447: real time    3.8846

 eigenvalue-minimisations  :  1756
 total energy-change (2. order) :-0.2743440E+00  (-0.2980199E+00)
 number of electron     138.0000000 magnetization 
 augmentation part      138.0000000 magnetization 

 DIPCOR: dipole corrections for dipol
 direction  3 min pos   356,
 dipolmoment           0.000000      0.000000     -0.000387 electrons x Angstroem
 Tr[quadrupol]     -1880.318578

 energy correction for charged system         0.000000 eV
 dipol+quadrupol energy correction           -0.000000 eV
 added-field ion interaction          0.003924 eV  (added to PSCEN)


 Free energy of the ion-electron system (eV)
  ---------------------------------------------------
  alpha Z        PSCENC =        63.16498729
  Ewald energy   TEWEN  =     12969.93283901
  -Hartree energ DENC   =    -16197.30783385
  -exchange      EXHF   =         0.00000000
  -V(xc)+E(xc)   XCENC  =     -2051.15114997
  PAW double counting   =      5135.15659847    -2719.01140655
  entropy T*S    EENTRO =         0.00000000
  eigenvalues    EBANDS =     -1109.59858866
  atomic energy  EATOM  =      3827.98814510
  Solvation  Ediel_sol  =         0.00000000
  ---------------------------------------------------
  free energy    TOTEN  =       -80.82640916 eV

  energy without entropy =      -80.82640916  energy(sigma->0) =      -80.82640916


--------------------------------------------------------------------------------------------------------




--------------------------------------- Iteration      1(  11)  ---------------------------------------


    EDDIAG:  cpu time    0.4935: real time    0.5106
  RMM-DIIS:  cpu time    3.1185: real time    3.1224
    ORTHCH:  cpu time    0.0715: real time    0.0716
 BZINTS: Fermi energy: -1.504764;138.000000 electrons
         Band energy:***********;  BLOECHL correction: -0.064884
       DOS:  cpu time    0.0030: real time    0.0030
    --------------------------------------------
      LOOP:  cpu time    3.6865: real time    3.7076

 eigenvalue-minimisations  :  1717
 total energy-change (2. order) : 0.8365851E-03  (-0.1573911E-01)
 number of electron     138.0000000 magnetization 
 augmentation part      138.0000000 magnetization 

 DIPCOR: dipole corrections for dipol
 direction  3 min pos   356,
 dipolmoment           0.000000      0.000000     -0.000387 electrons x Angstroem
 Tr[quadrupol]     -1880.318578

 energy correction for charged system         0.000000 eV
 dipol+quadrupol energy correction           -0.000000 eV
 added-field ion interaction          0.003924 eV  (added to PSCEN)


 Free energy of the ion-electron system (eV)
  ---------------------------------------------------
  alpha Z        PSCENC =        63.16498729
  Ewald energy   TEWEN  =     12969.93283901
  -Hartree energ DENC   =    -16197.30783385
  -exchange      EXHF   =         0.00000000
  -V(xc)+E(xc)   XCENC  =     -2051.15114997
  PAW double counting   =      5135.15659847    -2719.01140655
  entropy T*S    EENTRO =         0.00000000
  eigenvalues    EBANDS =     -1109.59775207
  atomic energy  EATOM  =      3827.98814510
  Solvation  Ediel_sol  =         0.00000000
  ---------------------------------------------------
  free energy    TOTEN  =       -80.82557257 eV

  energy without entropy =      -80.82557257  energy(sigma->0) =      -80.82557257


--------------------------------------------------------------------------------------------------------




--------------------------------------- Iteration      1(  12)  ---------------------------------------


    EDDIAG:  cpu time    0.4898: real time    0.5138
  RMM-DIIS:  cpu time    3.2890: real time    3.2913
    ORTHCH:  cpu time    0.0720: real time    0.0720
 BZINTS: Fermi energy: -1.504827;138.000000 electrons
         Band energy:***********;  BLOECHL correction: -0.064850
       DOS:  cpu time    0.0030: real time    0.0030
    CHARGE:  cpu time    0.1288: real time    0.1290
    MIXING:  cpu time    0.0034: real time    0.0034
    --------------------------------------------
      LOOP:  cpu time    3.9859: real time    4.0125

 eigenvalue-minimisations  :  1794
 total energy-change (2. order) :-0.2485304E-02  (-0.3354041E-02)
 number of electron     138.0000005 magnetization 
 augmentation part        5.2728386 magnetization 

 DIPCOR: dipole corrections for dipol
 direction  3 min pos   356,
 dipolmoment           0.000000      0.000000     -0.000387 electrons x Angstroem
 Tr[quadrupol]     -1880.318578

 energy correction for charged system         0.000000 eV
 dipol+quadrupol energy correction           -0.000000 eV
 added-field ion interaction          0.003924 eV  (added to PSCEN)


 Broyden mixing:
  rms(total) = 0.20248E+01    rms(broyden)= 0.20237E+01
  rms(prec ) = 0.21177E+01
  weight for this iteration     100.00

 Free energy of the ion-electron system (eV)
  ---------------------------------------------------
  alpha Z        PSCENC =        63.16498729
  Ewald energy   TEWEN  =     12969.93283901
  -Hartree energ DENC   =    -16197.30783385
  -exchange      EXHF   =         0.00000000
  -V(xc)+E(xc)   XCENC  =     -2051.15114997
  PAW double counting   =      5135.15659847    -2719.01140655
  entropy T*S    EENTRO =         0.00000000
  eigenvalues    EBANDS =     -1109.60023737
  atomic energy  EATOM  =      3827.98814510
  Solvation  Ediel_sol  =         0.00000000
  ---------------------------------------------------
  free energy    TOTEN  =       -80.82805787 eV

  energy without entropy =      -80.82805787  energy(sigma->0) =      -80.82805787


--------------------------------------------------------------------------------------------------------




--------------------------------------- Iteration      1(  13)  ---------------------------------------


    POTLOK:  cpu time    4.9173: real time    4.9486
    SETDIJ:  cpu time    0.1343: real time    0.1347
    EDDIAG:  cpu time    0.4757: real time    0.4768
  RMM-DIIS:  cpu time    2.5466: real time    2.5525
    ORTHCH:  cpu time    0.0713: real time    0.0714
 BZINTS: Fermi energy: -1.168077;138.000000 electrons
         Band energy:-921.361413;  BLOECHL correction: -0.078422
       DOS:  cpu time    0.0027: real time    0.0027
    CHARGE:  cpu time    0.1259: real time    0.1260
    MIXING:  cpu time    0.0041: real time    0.0041
    --------------------------------------------
      LOOP:  cpu time    8.2778: real time    8.3169

 eigenvalue-minimisations  :  1403
 total energy-change (2. order) : 0.9914438E+01  (-0.6266153E+01)
 number of electron     138.0000004 magnetization 
 augmentation part        4.4732510 magnetization 

 DIPCOR: dipole corrections for dipol
 direction  3 min pos   360,
 dipolmoment           0.000000      0.000000      0.590323 electrons x Angstroem
 Tr[quadrupol]     -1891.569644

 energy correction for charged system         0.000000 eV
 dipol+quadrupol energy correction           -0.012221 eV
 added-field ion interaction         -4.491259 eV  (added to PSCEN)


 Broyden mixing:
  rms(total) = 0.79481E+00    rms(broyden)= 0.79428E+00
  rms(prec ) = 0.10366E+01
  weight for this iteration     100.00

 eigenvalues of (default mixing * dielectric matrix)
  average eigenvalue GAMMA=   0.9412
  0.9412

 Free energy of the ion-electron system (eV)
  ---------------------------------------------------
  alpha Z        PSCENC =        58.65758377
  Ewald energy   TEWEN  =     12969.93283901
  -Hartree energ DENC   =    -16378.54865669
  -exchange      EXHF   =         0.00000000
  -V(xc)+E(xc)   XCENC  =     -2041.13026911
  PAW double counting   =      5558.77294628    -3145.22479494
  entropy T*S    EENTRO =         0.00000000
  eigenvalues    EBANDS =      -921.36141294
  atomic energy  EATOM  =      3827.98814510
  Solvation  Ediel_sol  =         0.00000000
  ---------------------------------------------------
  free energy    TOTEN  =       -70.91361953 eV

  energy without entropy =      -70.91361953  energy(sigma->0) =      -70.91361953


--------------------------------------------------------------------------------------------------------




--------------------------------------- Iteration      1(  14)  ---------------------------------------


    POTLOK:  cpu time    4.9072: real time    4.9334
    SETDIJ:  cpu time    0.1349: real time    0.1350
    EDDIAG:  cpu time    0.4755: real time    0.4762
  RMM-DIIS:  cpu time    2.9128: real time    2.9168
    ORTHCH:  cpu time    0.0717: real time    0.0717
 BZINTS: Fermi energy: -0.918796;138.000000 electrons
         Band energy:***********;  BLOECHL correction: -0.007744
       DOS:  cpu time    0.0028: real time    0.0028
    CHARGE:  cpu time    0.1242: real time    0.1242
    MIXING:  cpu time    0.0035: real time    0.0035
    --------------------------------------------
      LOOP:  cpu time    8.6325: real time    8.6636

 eigenvalue-minimisations  :  1598
 total energy-change (2. order) :-0.2676762E+02  (-0.1453976E+01)
 number of electron     138.0000004 magnetization 
 augmentation part        4.4594555 magnetization 

 DIPCOR: dipole corrections for dipol
 direction  3 min pos   374,
 dipolmoment           0.000000      0.000000     -2.077836 electrons x Angstroem
 Tr[quadrupol]     -1877.266194

 energy correction for charged system         0.000000 eV
 dipol+quadrupol energy correction           -0.151405 eV
 added-field ion interaction         -2.563347 eV  (added to PSCEN)


 Broyden mixing:
  rms(total) = 0.10898E+01    rms(broyden)= 0.10898E+01
  rms(prec ) = 0.32214E+01
  weight for this iteration     100.00

 eigenvalues of (default mixing * dielectric matrix)
  average eigenvalue GAMMA=   0.7226
  0.9589  0.4862

 Free energy of the ion-electron system (eV)
  ---------------------------------------------------
  alpha Z        PSCENC =        60.44631028
  Ewald energy   TEWEN  =     12969.93283901
  -Hartree energ DENC   =    -16322.52923983
  -exchange      EXHF   =         0.00000000
  -V(xc)+E(xc)   XCENC  =     -2039.23032311
  PAW double counting   =      5710.43598245    -3296.89906357
  entropy T*S    EENTRO =         0.00000000
  eigenvalues    EBANDS =     -1007.82588592
  atomic energy  EATOM  =      3827.98814510
  Solvation  Ediel_sol  =         0.00000000
  ---------------------------------------------------
  free energy    TOTEN  =       -97.68123558 eV

  energy without entropy =      -97.68123558  energy(sigma->0) =      -97.68123558


--------------------------------------------------------------------------------------------------------




--------------------------------------- Iteration      1(  15)  ---------------------------------------


    POTLOK:  cpu time    5.2413: real time    5.2682
    SETDIJ:  cpu time    0.1360: real time    0.1361
    EDDIAG:  cpu time    0.4761: real time    0.4767
  RMM-DIIS:  cpu time    2.6586: real time    2.6604
    ORTHCH:  cpu time    0.0717: real time    0.0717
 BZINTS: Fermi energy: -1.231724;138.000000 electrons
         Band energy:-920.947148;  BLOECHL correction: -0.087808
       DOS:  cpu time    0.0028: real time    0.0028
    CHARGE:  cpu time    0.1252: real time    0.1253
    MIXING:  cpu time    0.0038: real time    0.0038
    --------------------------------------------
      LOOP:  cpu time    8.7155: real time    8.7452

 eigenvalue-minimisations  :  1444
 total energy-change (2. order) : 0.2830425E+02  (-0.3391173E+00)
 number of electron     138.0000004 magnetization 
 augmentation part        4.3868277 magnetization 

 DIPCOR: dipole corrections for dipol
 direction  3 min pos   384,
 dipolmoment           0.000000      0.000000      0.107496 electrons x Angstroem
 Tr[quadrupol]     -1889.321767

 energy correction for charged system         0.000000 eV
 dipol+quadrupol energy correction           -0.000405 eV
 added-field ion interaction          0.811509 eV  (added to PSCEN)


 Broyden mixing:
  rms(total) = 0.49575E+00    rms(broyden)= 0.49572E+00
  rms(prec ) = 0.54818E+00
  weight for this iteration     100.00

 eigenvalues of (default mixing * dielectric matrix)
  average eigenvalue GAMMA=   1.1057
  1.9981  1.1698  0.1493

 Free energy of the ion-electron system (eV)
  ---------------------------------------------------
  alpha Z        PSCENC =        63.97216724
  Ewald energy   TEWEN  =     12969.93283901
  -Hartree energ DENC   =    -16385.13859576
  -exchange      EXHF   =         0.00000000
  -V(xc)+E(xc)   XCENC  =     -2038.73126858
  PAW double counting   =      5750.20460858    -3336.65773530
  entropy T*S    EENTRO =         0.00000000
  eigenvalues    EBANDS =      -920.94714779
  atomic energy  EATOM  =      3827.98814510
  Solvation  Ediel_sol  =         0.00000000
  ---------------------------------------------------
  free energy    TOTEN  =       -69.37698750 eV

  energy without entropy =      -69.37698750  energy(sigma->0) =      -69.37698750


--------------------------------------------------------------------------------------------------------




--------------------------------------- Iteration      1(  16)  ---------------------------------------


    POTLOK:  cpu time    4.9158: real time    4.9374
    SETDIJ:  cpu time    0.1349: real time    0.1349
    EDDIAG:  cpu time    0.4775: real time    0.4782
  RMM-DIIS:  cpu time    2.8936: real time    2.8958
    ORTHCH:  cpu time    0.0714: real time    0.0714
 BZINTS: Fermi energy: -0.948736;138.000000 electrons
         Band energy:-900.368158;  BLOECHL correction: -0.084919
       DOS:  cpu time    0.0029: real time    0.0029
    CHARGE:  cpu time    0.1292: real time    0.1292
    MIXING:  cpu time    0.0037: real time    0.0037
    --------------------------------------------
      LOOP:  cpu time    8.6291: real time    8.6537

 eigenvalue-minimisations  :  1597
 total energy-change (2. order) :-0.1517884E-01  (-0.1430469E+00)
 number of electron     138.0000004 magnetization 
 augmentation part        4.4399473 magnetization 

 DIPCOR: dipole corrections for dipol
 direction  3 min pos   368,
 dipolmoment           0.000000      0.000000      0.141591 electrons x Angstroem
 Tr[quadrupol]     -1894.652620

 energy correction for charged system         0.000000 eV
 dipol+quadrupol energy correction           -0.000703 eV
 added-field ion interaction         -0.361861 eV  (added to PSCEN)


 Broyden mixing:
  rms(total) = 0.25476E+00    rms(broyden)= 0.25475E+00
  rms(prec ) = 0.41043E+00
  weight for this iteration     100.00

 eigenvalues of (default mixing * dielectric matrix)
  average eigenvalue GAMMA=   1.0446
  2.3910  0.1536  0.6186  1.0150

 Free energy of the ion-electron system (eV)
  ---------------------------------------------------
  alpha Z        PSCENC =        62.79849898
  Ewald energy   TEWEN  =     12969.93283901
  -Hartree energ DENC   =    -16405.99511682
  -exchange      EXHF   =         0.00000000
  -V(xc)+E(xc)   XCENC  =     -2037.46227565
  PAW double counting   =      5858.51091671    -3444.79701601
  entropy T*S    EENTRO =         0.00000000
  eigenvalues    EBANDS =      -900.36815768
  atomic energy  EATOM  =      3827.98814510
  Solvation  Ediel_sol  =         0.00000000
  ---------------------------------------------------
  free energy    TOTEN  =       -69.39216635 eV

  energy without entropy =      -69.39216635  energy(sigma->0) =      -69.39216635


--------------------------------------------------------------------------------------------------------




--------------------------------------- Iteration      1(  17)  ---------------------------------------


    POTLOK:  cpu time    4.9345: real time    4.9594
    SETDIJ:  cpu time    0.1345: real time    0.1345
    EDDIAG:  cpu time    0.4764: real time    0.4771
  RMM-DIIS:  cpu time    2.4555: real time    2.4643
    ORTHCH:  cpu time    0.0714: real time    0.0714
 BZINTS: Fermi energy: -0.920871;138.000000 electrons
         Band energy:-895.951122;  BLOECHL correction: -0.089691
       DOS:  cpu time    0.0030: real time    0.0030
    CHARGE:  cpu time    0.1245: real time    0.1245
    MIXING:  cpu time    0.0039: real time    0.0039
    --------------------------------------------
      LOOP:  cpu time    8.2038: real time    8.2382

 eigenvalue-minimisations  :  1335
 total energy-change (2. order) : 0.3492245E+00  (-0.4407491E-01)
 number of electron     138.0000004 magnetization 
 augmentation part        4.4543722 magnetization 

 DIPCOR: dipole corrections for dipol
 direction  3 min pos   378,
 dipolmoment           0.000000      0.000000     -0.214367 electrons x Angstroem
 Tr[quadrupol]     -1893.170844

 energy correction for charged system         0.000000 eV
[...]
  0.013  -0.001  -0.001   0.054   0.001   0.000  -0.003  -0.000  -0.000   0.000   0.011  -0.000  -0.000
  0.001   0.000  -0.002   0.001   0.076   0.000  -0.000  -0.004  -0.003  -0.000   0.000   0.004   0.000
  0.000   0.000  -0.004   0.000   0.000   0.000  -0.000  -0.000  -0.000  -0.000   0.000   0.000   0.000
 -0.003   0.000   0.000  -0.003  -0.000  -0.000   0.000   0.000   0.000  -0.000  -0.001   0.000   0.000
 -0.000  -0.000   0.000  -0.000  -0.004  -0.000   0.000   0.000   0.000   0.000   0.000  -0.000  -0.000
  0.001   0.000   0.000  -0.000  -0.003  -0.000   0.000   0.000   0.004   0.000   0.000  -0.000  -0.000
  0.000  -0.000   0.004   0.000  -0.000  -0.000  -0.000   0.000   0.000   0.002   0.000   0.000  -0.000
 -0.022   0.000  -0.000   0.011   0.000   0.000  -0.001   0.000   0.000   0.000   0.004  -0.000  -0.000
  0.000   0.000  -0.000  -0.000   0.004   0.000   0.000  -0.000  -0.000   0.000  -0.000   0.002   0.000
 -0.001  -0.000  -0.002  -0.000   0.000   0.000   0.000  -0.000  -0.000  -0.000  -0.000   0.000   0.003


------------------------ aborting loop because EDIFF is reached ----------------------------------------


    CHARGE:  cpu time    0.3621: real time    0.3623
    FORLOC:  cpu time    0.0385: real time    0.0385
    FORNL :  cpu time    0.6904: real time    0.6910
    STRESS:  cpu time    2.0765: real time    2.0780
    FORCOR:  cpu time    4.9466: real time    4.9512
    FORHAR:  cpu time    0.0737: real time    0.0737
    MIXING:  cpu time    0.0071: real time    0.0071
    OFIELD:  cpu time    0.0001: real time    0.0000

  FORCE on cell =-STRESS in cart. coord.  units (eV):
  Direction    XX          YY          ZZ          XY          YZ          ZX
  --------------------------------------------------------------------------------------
  Alpha Z    63.16106    63.16106    63.16106
  Ewald   14486.82190 14433.51715-15950.41608  -290.64634   132.25426   136.52207
  Hartree 15416.62615 15356.30507-14334.15461  -211.05132    38.65894    30.66312
  E(xc)    -445.82792  -445.57411  -444.65360    -0.27543     0.50877     0.60310
  Local  -30870.47857-30752.29530 29323.64851   498.50132  -138.83235  -127.01461
  n-local   119.50348   119.56986   112.30871    -0.31365     0.62458     0.75368
  augment    44.91873    44.56738    45.28786     0.15708    -2.09170    -2.68418
  Kinetic  1176.94450  1171.56000  1185.64146     4.25346   -30.60931   -38.03233
  Fock        0.00000     0.00000     0.00000     0.00000     0.00000     0.00000
  -------------------------------------------------------------------------------------
  Total      -8.33067    -9.18888     0.82330     0.62512     0.51320     0.81085
  in kB      -5.17342    -5.70638     0.51128     0.38820     0.31870     0.50354
  external pressure =       -3.46 kB  Pullay stress =        0.00 kB


 VOLUME and BASIS-vectors are now :
 -----------------------------------------------------------------------------
  energy-cutoff  :      520.00
  volume of cell :     2579.96
      direct lattice vectors                 reciprocal lattice vectors
     9.555752754  0.000000000  0.000000000     0.104649003  0.060419130  0.000000000
    -4.777876377  8.275524637  0.000000000     0.000000000  0.120838260  0.000000000
     0.000000000  0.000000000 32.625095367     0.000000000  0.000000000  0.030651251

  length of vectors
     9.555752754  9.555752754 32.625095367     0.120838260  0.120838260  0.030651251


 FORCES acting on ions
    electron-ion (+dipol)            ewald-force                    non-local-force                 convergence-correction
 -----------------------------------------------------------------------------------------------
   0.720E-01 -.289E-01 0.122E+03   -.133E-01 -.132E-01 -.121E+03   -.376E-01 0.317E-01 -.779E+00   0.141E-04 -.610E-05 -.119E-02
   0.449E+00 0.531E-01 0.564E+02   -.364E+00 -.143E+00 -.565E+02   -.709E-01 0.766E-01 0.717E-01   -.663E-06 -.285E-04 -.769E-02
   -.487E+00 -.924E-01 0.359E+01   0.652E+00 0.115E+00 -.406E+01   -.157E+00 -.273E-01 0.469E+00   -.217E-04 -.467E-04 -.680E-03
   -.454E-01 -.259E-01 0.122E+03   -.132E-01 -.271E-02 -.121E+03   0.162E-01 0.109E-01 -.871E+00   0.186E-04 0.149E-04 -.118E-02
   0.170E+00 -.133E-01 0.566E+02   -.160E+00 -.714E-03 -.567E+02   -.671E-02 0.153E-01 0.862E-01   0.516E-05 0.277E-04 -.770E-02
   -.175E+01 -.290E+01 -.893E+01   0.175E+01 0.286E+01 0.863E+01   -.853E-02 0.341E-01 0.322E+00   0.421E-04 0.394E-04 -.190E-02
   0.251E-01 0.712E-01 0.122E+03   -.147E-01 -.787E-02 -.121E+03   0.118E-01 -.360E-01 -.892E+00   -.267E-05 0.783E-05 -.117E-02
   0.232E+00 0.381E+00 0.563E+02   -.241E+00 -.285E+00 -.564E+02   -.201E-02 -.774E-01 0.151E+00   -.162E-05 0.161E-05 -.768E-02
   -.219E+01 0.147E+01 -.145E+02   0.229E+01 -.122E+01 0.139E+02   -.956E-01 -.219E+00 0.558E+00   -.695E-04 -.166E-04 -.167E-02
   -.459E-01 -.422E-01 0.122E+03   0.761E-02 0.755E-03 -.121E+03   0.245E-01 0.196E-01 -.881E+00   -.122E-04 -.468E-05 -.116E-02
   -.178E+00 -.452E-01 0.568E+02   0.130E+00 -.458E-02 -.569E+02   0.375E-01 0.393E-01 0.138E+00   0.167E-04 -.172E-04 -.770E-02
   -.102E+01 0.189E+00 -.499E+01   0.813E+00 -.286E+00 0.454E+01   0.180E+00 0.933E-01 0.448E+00   -.130E-04 0.113E-04 -.204E-02
   0.125E-01 0.109E-01 0.122E+03   0.909E-02 0.118E-01 -.121E+03   -.194E-01 -.224E-01 -.863E+00   -.583E-05 -.195E-04 -.120E-02
   0.670E-01 -.119E+00 0.572E+02   -.500E-01 0.744E-01 -.572E+02   -.970E-02 0.303E-01 0.124E-01   0.168E-04 0.266E-04 -.767E-02
   0.388E+01 0.515E+01 -.118E+02   -.405E+01 -.585E+01 0.110E+02   0.174E+00 0.688E+00 0.790E+00   0.441E-04 0.188E-03 -.168E-02
   -.566E-01 -.139E-02 0.122E+03   0.107E-01 0.331E-02 -.121E+03   0.296E-01 0.372E-02 -.775E+00   -.150E-04 0.565E-05 -.118E-02
   -.104E+00 0.457E-01 0.569E+02   0.605E-01 0.778E-02 -.569E+02   0.278E-01 -.351E-01 -.236E-02   0.898E-05 0.167E-04 -.768E-02
   0.606E+01 0.172E+01 0.313E-01   -.645E+01 -.161E+01 -.399E+00   0.368E+00 -.113E+00 0.354E+00   0.182E-03 -.110E-03 -.695E-03
   -.111E-01 0.593E-01 0.122E+03   0.571E-02 -.233E-02 -.121E+03   0.182E-03 -.710E-02 -.885E+00   -.309E-05 -.209E-04 -.117E-02
   -.279E+00 0.911E-01 0.564E+02   0.247E+00 -.900E-01 -.566E+02   0.257E-01 -.147E-01 0.137E+00   -.182E-04 -.423E-04 -.769E-02
   0.102E+01 0.961E+00 -.135E+02   -.912E+00 -.970E+00 0.133E+02   -.103E+00 0.277E-01 0.248E+00   0.299E-04 -.876E-04 -.170E-02
   0.772E-01 -.643E-01 0.122E+03   0.423E-02 0.888E-02 -.121E+03   -.377E-01 0.247E-01 -.812E+00   -.116E-04 0.120E-04 -.117E-02
   -.214E+00 -.221E+00 0.565E+02   0.206E+00 0.237E+00 -.566E+02   -.205E-02 -.280E-02 0.795E-01   -.209E-04 0.200E-04 -.768E-02
   -.740E+01 0.632E+01 0.101E+02   0.758E+01 -.661E+01 -.101E+02   -.174E+00 0.278E+00 0.501E-01   -.958E-04 0.107E-03 -.947E-03
   -.515E-01 -.174E-01 0.122E+03   0.405E-02 0.160E-02 -.121E+03   0.348E-01 0.163E-01 -.802E+00   0.174E-04 0.101E-04 -.119E-02
   -.174E+00 -.222E+00 0.562E+02   0.175E+00 0.211E+00 -.563E+02   0.116E-01 0.113E-01 0.281E-01   -.758E-05 -.486E-05 -.765E-02
   0.369E+00 -.137E+02 0.124E+02   -.109E+00 0.139E+02 -.108E+02   -.277E+00 -.132E+00 -.154E+01   -.101E-03 -.110E-03 -.777E-03
   0.110E+00 0.785E-01 0.898E+02   -.823E-01 -.740E-01 -.898E+02   -.269E-01 -.365E-01 -.334E-01   -.759E-05 -.201E-05 -.584E-02
   0.497E+00 0.745E+00 0.239E+02   -.518E+00 -.645E+00 -.240E+02   0.184E-01 -.117E+00 0.160E+00   0.769E-05 0.492E-05 -.579E-02
   0.876E-01 0.428E-03 0.898E+02   -.414E-01 0.148E-03 -.897E+02   -.247E-01 0.892E-02 -.202E-01   -.189E-04 0.213E-04 -.583E-02
   0.117E+00 -.473E-01 0.233E+02   -.122E+00 0.584E-01 -.234E+02   0.289E-02 0.183E-02 0.106E+00   0.488E-05 0.380E-04 -.576E-02
   0.463E-01 0.575E-01 0.898E+02   -.983E-01 -.581E-01 -.897E+02   0.949E-02 0.199E-02 -.809E-01   0.340E-04 -.141E-04 -.583E-02
   0.615E+00 0.118E+00 0.246E+02   -.614E+00 -.179E+00 -.246E+02   -.246E-01 0.602E-01 -.244E-01   0.653E-05 -.343E-04 -.584E-02
   -.216E+00 -.438E-01 0.898E+02   0.158E+00 0.768E-01 -.898E+02   0.563E-01 -.158E-01 -.266E-01   0.217E-04 -.353E-04 -.583E-02
   -.290E+00 0.449E+00 0.249E+02   0.243E+00 -.422E+00 -.251E+02   0.494E-01 -.135E-01 0.166E+00   0.989E-05 0.195E-04 -.581E-02
   -.106E+00 -.141E+00 0.897E+02   0.113E+00 0.142E+00 -.896E+02   0.295E-02 0.150E-01 -.682E-01   -.116E-04 0.131E-04 -.581E-02
   0.675E+00 -.808E+00 0.248E+02   -.574E+00 0.678E+00 -.252E+02   -.102E+00 0.128E+00 0.380E+00   0.161E-04 0.312E-04 -.577E-02
   -.847E-01 -.141E-01 0.898E+02   0.952E-01 -.152E-01 -.897E+02   -.118E-01 -.165E-01 -.267E-01   -.235E-04 0.141E-04 -.582E-02
   -.134E+00 0.324E+00 0.237E+02   0.216E+00 -.328E+00 -.239E+02   -.868E-01 -.145E-01 0.150E+00   0.563E-05 -.322E-04 -.579E-02
   0.117E+00 0.175E-02 0.897E+02   -.892E-01 0.146E-01 -.896E+02   -.352E-01 -.786E-02 -.640E-01   -.157E-04 -.157E-05 -.582E-02
   -.199E+00 -.458E-01 0.248E+02   0.277E+00 0.196E-01 -.248E+02   -.932E-01 0.360E-01 0.166E-01   -.204E-04 -.517E-06 -.582E-02
   0.745E-01 0.361E-01 0.896E+02   -.766E-01 -.269E-01 -.896E+02   -.275E-01 -.132E-01 0.542E-01   0.314E-04 -.111E-05 -.583E-02
   -.828E+00 -.417E+00 0.229E+02   0.812E+00 0.453E+00 -.230E+02   0.703E-02 -.520E-01 0.983E-01   -.242E-04 0.174E-04 -.554E-02
   0.377E-01 0.879E-01 0.896E+02   -.487E-02 -.987E-01 -.896E+02   -.927E-03 -.162E-01 0.107E-01   -.891E-05 0.592E-05 -.582E-02
   -.499E+00 -.423E+00 0.222E+02   0.406E+00 0.440E+00 -.224E+02   0.993E-01 -.183E-01 0.198E+00   -.973E-05 -.476E-04 -.556E-02
   0.127E+02 0.406E+02 -.263E+03   -.237E+02 -.649E+02 0.238E+03   0.110E+02 0.243E+02 0.246E+02   -.532E-04 -.168E-03 0.675E-02
   0.272E+01 0.203E+02 -.416E+03   -.122E+02 -.455E+02 0.450E+03   0.954E+01 0.252E+02 -.335E+02   -.408E-04 -.221E-04 0.833E-02
   0.171E+02 0.340E+01 -.418E+03   -.234E+02 -.286E+02 0.453E+03   0.639E+01 0.252E+02 -.348E+02   0.927E-04 -.101E-03 0.839E-02
   0.815E+01 0.629E+02 -.253E+03   -.287E+02 -.813E+02 0.236E+03   0.205E+02 0.184E+02 0.171E+02   -.454E-03 0.343E-03 0.594E-02
   0.468E+02 -.227E+02 -.270E+03   -.658E+02 0.224E+01 0.258E+03   0.189E+02 0.205E+02 0.129E+02   -.489E-03 -.366E-03 0.545E-02
   0.131E+02 0.582E+02 -.276E+03   -.299E+02 -.833E+02 0.253E+03   0.169E+02 0.251E+02 0.229E+02   0.464E-03 -.441E-03 0.645E-02
   0.353E+02 -.415E+02 -.865E+02   -.401E+02 0.467E+02 0.894E+02   0.484E+01 -.522E+01 -.291E+01   0.139E-04 -.357E-05 0.126E-02
   -.576E+02 -.153E+01 -.995E+02   0.646E+02 0.141E+01 0.103E+03   -.706E+01 0.113E+00 -.395E+01   0.378E-05 0.619E-05 0.129E-02
   -.370E+02 -.693E+02 -.613E+02   0.408E+02 0.765E+02 0.611E+02   -.378E+01 -.719E+01 0.138E+00   0.237E-04 0.873E-04 0.131E-02
   0.170E+02 0.156E+02 0.343E+02   -.188E+02 -.172E+02 -.413E+02   0.180E+01 0.150E+01 0.699E+01   -.290E-04 -.476E-05 0.986E-03
   -.335E+02 -.778E+02 -.545E+02   0.368E+02 0.853E+02 0.540E+02   -.328E+01 -.743E+01 0.546E+00   0.626E-04 0.885E-04 0.130E-02
   0.252E+02 0.169E+02 0.300E+02   -.276E+02 -.186E+02 -.369E+02   0.238E+01 0.172E+01 0.681E+01   -.179E-04 -.202E-04 0.991E-03
   0.137E+02 -.264E+02 -.612E+02   -.157E+02 0.301E+02 0.618E+02   0.198E+01 -.369E+01 -.578E+00   -.641E-04 0.117E-04 0.100E-02
   -.601E+02 0.416E+01 -.106E+03   0.666E+02 -.473E+01 0.111E+03   -.652E+01 0.592E+00 -.488E+01   -.700E-05 0.324E-04 0.125E-02
   -.316E+02 -.562E+02 -.107E+03   0.351E+02 0.619E+02 0.112E+03   -.337E+01 -.567E+01 -.480E+01   0.193E-04 0.553E-04 0.123E-02
   0.440E+01 0.397E+01 -.815E+01   -.433E+01 -.400E+01 0.840E+01   -.743E-01 0.377E-01 -.301E+00   0.476E-04 0.255E-04 -.280E-03
   0.281E+02 -.469E+02 -.868E+02   -.320E+02 0.530E+02 0.897E+02   0.396E+01 -.613E+01 -.296E+01   0.297E-04 -.270E-04 0.125E-02
   -.692E+02 0.851E+01 -.958E+02   0.767E+02 -.931E+01 0.992E+02   -.743E+01 0.813E+00 -.345E+01   0.835E-04 -.615E-04 0.120E-02
 -----------------------------------------------------------------------------------------------
   -.664E+02 -.109E+03 0.450E+01   -.284E-13 -.391E-13 0.131E-11   0.664E+02 0.109E+03 -.436E+01   -.321E-03 -.595E-03 -.142E+00
 
 
 POSITION                                       TOTAL-FORCE (eV/Angst)
 -----------------------------------------------------------------------------------
      0.00000      0.00000      0.00000         0.021245     -0.010321      0.006393
      4.76354      8.26144      5.15885         0.014936     -0.013192      0.002333
      9.53912      0.02407     10.79606         0.007899     -0.004498     -0.001497
     -1.59263      2.75851      0.00000        -0.042238     -0.017497     -0.032810
      7.95692      2.75256      5.13817         0.003557      0.001422     -0.004406
      7.86573      2.73320     10.12718        -0.004175     -0.007498      0.020100
     -3.18525      5.51702      0.00000         0.022377      0.027545     -0.023229
      6.35615      5.50220      5.14611        -0.011654      0.018474      0.000678
      6.33153      5.56386     10.24207        -0.001342      0.030392      0.004013
      3.18525      0.00000      0.00000        -0.013622     -0.021700     -0.021971
     -1.59830      8.26205      5.12897        -0.010510     -0.010284      0.001716
     -1.66911      8.25514     10.07214        -0.031387     -0.003467      0.002173
      1.59263      2.75851      0.00000         0.002231      0.000386     -0.036642
      1.58399      2.73947      5.12049         0.007492     -0.014378     -0.015776
      1.49700      2.68140     10.17079        -0.005353     -0.009015     -0.011656
     -0.00000      5.51702      0.00000        -0.016141      0.005790     -0.026721
     -0.01820      5.51052      5.15315        -0.015846      0.018522     -0.002981
     -0.19503      5.53798     10.78202        -0.018823     -0.002222     -0.014449
      6.37050      0.00000      0.00000        -0.005032      0.050008     -0.041198
      1.59363      8.25362      5.14356        -0.006047     -0.013514     -0.001694
      6.33763      0.00288     10.23917         0.005795      0.018955      0.026295
      4.77788      2.75851      0.00000         0.043859     -0.030501     -0.023636
      4.76585      2.76227      5.18066        -0.010246      0.012806      0.003518
      4.77626      2.61380     10.63254         0.002156     -0.004242      0.017797
      3.18525      5.51702      0.00000        -0.012558      0.000693     -0.038898
      3.20022      5.51310      5.18382         0.013594      0.000581     -0.012401
      3.09248      5.53877     10.72755        -0.016467      0.016401      0.033849
      0.00000      1.83901      2.60418         0.000926     -0.031872      0.019272
     -0.02756      1.79945      7.69075        -0.002263     -0.016271      0.004989
     -1.59263      4.59751      2.60418         0.021592      0.009655      0.028624
     -1.58236      4.60759      7.71856        -0.002406      0.013108      0.009789
     -3.18525      7.35602      2.60418        -0.042393      0.001493     -0.054419
     -3.22910      7.32938      7.64698        -0.023248     -0.001210      0.020216
      3.18525      1.83901      2.60418        -0.001618      0.017274      0.039342
      3.17154      1.85243      7.69013         0.001922      0.013719     -0.004704
      1.59263      4.59751      2.60418         0.010257      0.015930      0.007801
      1.57992      4.58768      7.65088         0.000158     -0.002211      0.000178
      0.00000      7.35602      2.60418        -0.001234     -0.045574      0.038372
      0.00876      7.29640      7.70535        -0.004915     -0.018405     -0.002637
      6.37050      1.83901      2.60418        -0.007243      0.008680     -0.019178
      6.32888      1.80195      7.66134        -0.015742      0.010034     -0.003811
      4.77788      4.59751      2.60418        -0.029477     -0.003867      0.079527
      4.72017      4.53735      7.88191        -0.008788     -0.015686     -0.013261
      3.18525      7.35602      2.60418         0.031989     -0.026805      0.046468
      3.20570      7.30359      7.85034         0.006712     -0.001179      0.002762
      9.46203      0.08313     12.93051        -0.000432     -0.004284      0.011453
     -1.93838      7.98608     13.46481         0.011428     -0.005183      0.021314
      7.48020      2.00870     13.47959         0.012032     -0.003368      0.035736
      4.40441      2.84683     12.65863        -0.021143      0.022110      0.009854
      3.24077      5.06882     12.64751        -0.058514      0.007465      0.042106
     -0.20400      5.67953     12.90861         0.039353     -0.008919     -0.002515
      8.85613      0.77018     13.31929         0.000764     -0.001482     -0.002547
      0.75900      0.09120     13.42129         0.007671      0.000756     -0.008421
      3.29569      0.58047     13.42684        -0.001876     -0.003073     -0.005967
     -2.16612      7.80975     12.50917         0.002809     -0.027438     -0.002323
      7.87255      2.90303     13.38994         0.011874     -0.007501      0.003561
      7.17428      1.80354     12.55159        -0.005494     -0.004698     -0.003104
      3.92593      3.81552     12.78691        -0.026817      0.017950      0.001092
      5.18641      2.79426     13.24402        -0.019502      0.022443      0.007290
      3.65126      5.74318     13.21672         0.074882      0.021285     -0.003880
      1.41520      4.49310     10.78209        -0.003188      0.007163     -0.055755
     -0.67894      6.46044     13.29310         0.042389     -0.011818     -0.002134
      0.67614      5.60746     13.33437         0.075836      0.012129     -0.053985
 -----------------------------------------------------------------------------------
    total drift:                               -0.008894     -0.008830      0.001458


--------------------------------------------------------------------------------------------------------



  FREE ENERGIE OF THE ION-ELECTRON SYSTEM (eV)
  ---------------------------------------------------
  free  energy   TOTEN  =       -69.00607775 eV

  energy  without entropy=      -69.00607775  energy(sigma->0) =      -69.00607775
 


--------------------------------------------------------------------------------------------------------


    POTLOK:  cpu time    5.0654: real time    5.0682


--------------------------------------------------------------------------------------------------------


 stress matrix after NEB project (eV)
     -8.33067      0.62512      0.81085
      0.62512     -9.18888      0.51320
      0.81085      0.51320      0.82330
  FORCES: max atom, RMS     0.093875    0.026981
  FORCE total and by dimension    0.214157    0.075836
  Stress total and by dimension   12.535413    9.188879
     LOOP+:  cpu time  218.8692: real time  220.4933
 vacuum level on the upper side and lower side of the slab         2.413         3.103
    4ORBIT:  cpu time    0.0000: real time    0.0000
 BZINTS: Fermi energy: -0.735665;138.000000 electrons
         Band energy:-871.799893;  BLOECHL correction: -0.091502

 total amount of memory used by VASP MPI-rank0    62235. kBytes
=======================================================================

   base      :      30000. kBytes
   nonlr-proj:       6332. kBytes
   fftplans  :       6459. kBytes
   grid      :      11407. kBytes
   one-center:         24. kBytes
   wavefun   :       8013. kBytes
 
  
  
 General timing and accounting informations for this job:
 ========================================================
  
                  Total CPU time used (sec):      265.724
                            User time (sec):      257.391
                          System time (sec):        8.332
                         Elapsed time (sec):      278.812
  
                   Maximum memory used (kb):      268204.
                   Average memory used (kb):           0.
  
                          Minor page faults:       190616
                          Major page faults:            0
                 Voluntary context switches:        78112
