 running on   72 total cores
 distrk:  each k-point on   72 cores,    1 groups
 distr:  one band on   24 cores,    3 groups
 using from now: INCAR     
 vasp.5.4.4.18Apr17-6-g9f103f2a35 (build Jun 08 2018 12:06:12) complex          
  
 POSCAR found type information on POSCAR  Mg O  H 
 POSCAR found :  3 types and      63 ions
 scaLAPACK will be used

 ----------------------------------------------------------------------------- 
|                                                                             |
|           W    W    AA    RRRRR   N    N  II  N    N   GGGG   !!!           |
|           W    W   A  A   R    R  NN   N  II  NN   N  G    G  !!!           |
|           W    W  A    A  R    R  N N  N  II  N N  N  G       !!!           |
|           W WW W  AAAAAA  RRRRR   N  N N  II  N  N N  G  GGG   !            |
|           WW  WW  A    A  R   R   N   NN  II  N   NN  G    G                |
|           W    W  A    A  R    R  N    N  II  N    N   GGGG   !!!           |
|                                                                             |
|      For optimal performance we recommend to set                            |
|        NCORE= 4 - approx SQRT( number of cores)                             |
|      NCORE specifies how many cores store one orbital (NPAR=cpu/NCORE).     |
|      This setting can  greatly improve the performance of VASP for DFT.     |
|      The default,   NCORE=1            might be grossly inefficient         |
|      on modern multi-core architectures or massively parallel machines.     |
|      Do your own testing !!!!                                               |
|      Unfortunately you need to use the default for GW and RPA calculations. |
|      (for HF NCORE is supported but not extensively tested yet)             |
|                                                                             |
 ----------------------------------------------------------------------------- 


 ----------------------------------------------------------------------------- 
|                                                                             |
|  ADVICE TO THIS USER RUNNING 'VASP/VAMP'   (HEAR YOUR MASTER'S VOICE ...):  |
|                                                                             |
|      You have switched on vdW-DFT.                                          |
|      This routine was written and supplied by Jiri Klimes.                  |
|      We recommed that you carefully read and cite the following             |
|      publication                                                            |
|      J. Klimes, D.R. Bowler, A. Michelides                                  |
|        J. Phys.: Cond Matt. 22 022201 (2010)                                |
|      J. Klimes, D.R. Bowler, A. Michelides                                  |
|        Phys. Rev. B. 83, 195131 (2011)                                      |
|      and references therein.                                                |
|                                                                             |
 ----------------------------------------------------------------------------- 


 ----------------------------------------------------------------------------- 
|                                                                             |
|  ADVICE TO THIS USER RUNNING 'VASP/VAMP'   (HEAR YOUR MASTER'S VOICE ...):  |
|                                                                             |
|      You enforced a specific xc-type in the INCAR file,                     |
|      a different type was found on the POTCAR file                          |
|          I HOPE YOU KNOW, WHAT YOU ARE  DOING                               |
|                                                                             |
 ----------------------------------------------------------------------------- 

 LDA part: xc-table for Pade appr. of Perdew
 POSCAR found type information on POSCAR  Mg O  H 
 POSCAR found :  3 types and      63 ions
 POSCAR, INCAR and KPOINTS ok, starting setup
 FFT: planning ...
 WAVECAR not read
 augmentation electrons   138.057246546969     
 soft         electrons  0.000000000000000E+000
 augmentation electrons   138.057246546969     
 soft         electrons  0.000000000000000E+000
 augmentation electrons   138.057246546969     
 soft         electrons  0.000000000000000E+000
 augmentation electrons   138.057246546969     
 soft         electrons  0.000000000000000E+000
 augmentation electrons   138.057246546969     
 soft         electrons  0.000000000000000E+000
 augmentation electrons   138.057246546969     
 soft         electrons  0.000000000000000E+000
 augmentation electrons   138.057246546969     
 soft         electrons  0.000000000000000E+000
 augmentation electrons   138.057246546969     
 soft         electrons  0.000000000000000E+000
 augmentation electrons   138.057246546969     
 soft         electrons  0.000000000000000E+000
 augmentation electrons   138.057246546969     
 soft         electrons  0.000000000000000E+000
 augmentation electrons   138.057246546969     
 soft         electrons  0.000000000000000E+000
 augmentation electrons   138.057246546969     
 soft         electrons  0.000000000000000E+000
 augmentation electrons   138.057246546969     
 soft         electrons  0.000000000000000E+000
 augmentation electrons   138.057246546969     
 soft         electrons  0.000000000000000E+000
 augmentation electrons   138.057246546969     
 soft         electrons  0.000000000000000E+000
 augmentation electrons   138.057246546969     
 soft         electrons  0.000000000000000E+000
 augmentation electrons   138.057246546969     
 soft         electrons  0.000000000000000E+000
 augmentation electrons   138.057246546969     
 soft         electrons  0.000000000000000E+000
 augmentation electrons   138.057246546969     
 soft         electrons  0.000000000000000E+000
 augmentation electrons   138.057246546969     
 soft         electrons  0.000000000000000E+000
 augmentation electrons   138.057246546969     
 soft         electrons  0.000000000000000E+000
 augmentation electrons   138.057246546969     
 soft         electrons  0.000000000000000E+000
 augmentation electrons   138.057246546969     
 soft         electrons  0.000000000000000E+000
 augmentation electrons   138.057246546969     
 soft         electrons  0.000000000000000E+000
 augmentation electrons   138.057246546969     
 soft         electrons  0.000000000000000E+000
 augmentation electrons   138.057246546969     
 soft         electrons  0.000000000000000E+000
 augmentation electrons   138.057246546969     
 soft         electrons  0.000000000000000E+000
 augmentation electrons   138.057246546969     
 soft         electrons  0.000000000000000E+000
 augmentation electrons   138.057246546969     
 soft         electrons  0.000000000000000E+000
 augmentation electrons   138.057246546969     
 soft         electrons  0.000000000000000E+000
 augmentation electrons   138.057246546969     
 soft         electrons  0.000000000000000E+000
 augmentation electrons   138.057246546969     
 soft         electrons  0.000000000000000E+000
 augmentation electrons   138.057246546969     
 soft         electrons  0.000000000000000E+000
 augmentation electrons   138.057246546969     
 soft         electrons  0.000000000000000E+000
 augmentation electrons   138.057246546969     
 soft         electrons  0.000000000000000E+000
 augmentation electrons   138.057246546969     
 soft         electrons  0.000000000000000E+000
 augmentation electrons   138.057246546969     
 soft         electrons  0.000000000000000E+000
 augmentation electrons   138.057246546969     
 soft         electrons  0.000000000000000E+000
 augmentation electrons   138.057246546969     
 soft         electrons  0.000000000000000E+000
 augmentation electrons   138.057246546969     
 soft         electrons  0.000000000000000E+000
 augmentation electrons   138.057246546969     
 soft         electrons  0.000000000000000E+000
 augmentation electrons   138.057246546969     
 soft         electrons  0.000000000000000E+000
 augmentation electrons   138.057246546969     
 soft         electrons  0.000000000000000E+000
 augmentation electrons   138.057246546969     
 soft         electrons  0.000000000000000E+000
 augmentation electrons   138.057246546969     
 soft         electrons  0.000000000000000E+000
 augmentation electrons   138.057246546969     
 soft         electrons  0.000000000000000E+000
 augmentation electrons   138.057246546969     
 soft         electrons  0.000000000000000E+000
 augmentation electrons   138.057246546969     
 soft         electrons  0.000000000000000E+000
 augmentation electrons   138.057246546969     
 augmentation electrons   138.057246546969     
 soft         electrons  0.000000000000000E+000
 augmentation electrons   138.057246546969     
 soft         electrons  0.000000000000000E+000
 soft         electrons  0.000000000000000E+000
 augmentation electrons   138.057246546969     
 soft         electrons  0.000000000000000E+000
 augmentation electrons   138.057246546969     
 soft         electrons  0.000000000000000E+000
 total        electrons   138.057246546969     
 augmentation electrons   138.057246546969     
 soft         electrons  0.000000000000000E+000
 augmentation electrons   138.057246546969     
 soft         electrons  0.000000000000000E+000
 total        electrons   138.057246546969     
 augmentation electrons   138.057246546969     
 soft         electrons  0.000000000000000E+000
 augmentation electrons   138.057246546969     
 soft         electrons  0.000000000000000E+000
 total        electrons   138.057246546969     
 augmentation electrons   138.057246546969     
 soft         electrons  0.000000000000000E+000
 augmentation electrons   138.057246546969     
 soft         electrons  0.000000000000000E+000
 total        electrons   138.057246546969     
 augmentation electrons   138.057246546969     
 soft         electrons  0.000000000000000E+000
 augmentation electrons   138.057246546969     
 soft         electrons  0.000000000000000E+000
 total        electrons   138.057246546969     
 augmentation electrons   138.057246546969     
 soft         electrons  0.000000000000000E+000
 augmentation electrons   138.057246546969     
 soft         electrons  0.000000000000000E+000
 total        electrons   138.057246546969     
 augmentation electrons   138.057246546969     
 soft         electrons  0.000000000000000E+000
 augmentation electrons   138.057246546969     
 soft         electrons  0.000000000000000E+000
 total        electrons   138.057246546969     
 augmentation electrons   138.057246546969     
 soft         electrons  0.000000000000000E+000
 augmentation electrons   138.057246546969     
 soft         electrons  0.000000000000000E+000
 total        electrons   138.057246546969     
 augmentation electrons   138.057246546969     
 soft         electrons  0.000000000000000E+000
 augmentation electrons   138.057246546969     
 soft         electrons  0.000000000000000E+000
 total        electrons   138.057246546969     
 augmentation electrons   138.057246546969     
 augmentation electrons   138.057246546969     
 soft         electrons  0.000000000000000E+000
 total        electrons   138.057246546969     
 soft         electrons  0.000000000000000E+000
 augmentation electrons   138.057246546969     
 total        electrons   138.057246546969     
 total        electrons   138.057246546969     
 soft         electrons  0.000000000000000E+000
 total        electrons   138.057246546969     
 total        electrons   138.057246546969     
 total        electrons   138.057246546969     
 total        electrons   138.057246546969     
 total        electrons   138.057246546969     
 total        electrons   138.057246546969     
 total        electrons   138.057246546969     
 total        electrons   138.057246546969     
 total        electrons   138.057246546969     
 total        electrons   138.057246546969     
 total        electrons   138.057246546969     
 total        electrons   138.057246546969     
 total        electrons   138.057246546969     
 total        electrons   138.057246546969     
 total        electrons   138.057246546969     
 total        electrons   138.057246546969     
 total        electrons   138.057246546969     
 total        electrons   138.057246546969     
 total        electrons   138.057246546969     
 total        electrons   138.057246546969     
 total        electrons   138.057246546969     
 total        electrons   138.057246546969     
 total        electrons   138.057246546969     
 total        electrons   138.057246546969     
 total        electrons   138.057246546969     
 total        electrons   138.057246546969     
 total        electrons   138.057246546969     
 total        electrons   138.057246546969     
 total        electrons   138.057246546969     
 total        electrons   138.057246546969     
 total        electrons   138.057246546969     
 total        electrons   138.057246546969     
 total        electrons   138.057246546969     
 total        electrons   138.057246546969     
 total        electrons   138.057246546969     
 total        electrons   138.057246546969     
 total        electrons   138.057246546969     
 total        electrons   138.057246546969     
 total        electrons   138.057246546969     
 total        electrons   138.057246546969     
 total        electrons   138.057246546969     
 total        electrons   138.057246546969     
 total        electrons   138.057246546969     
 total        electrons   138.057246546969     
 total        electrons   138.057246546969     
 total        electrons   138.057246546969     
 total        electrons   138.057246546969     
 total        electrons   138.057246546969     
 total        electrons   138.057246546969     
 total        electrons   138.057246546969     
 total        electrons   138.057246546969     
 total        electrons   138.057246546969     
 total        electrons   138.057246546969     
 total        electrons   138.057246546969     
 total        electrons   138.057246546969     
 total        electrons   138.057246546969     
 total        electrons   138.057246546969     
 total        electrons   138.057246546969     
 total        electrons   138.057246546969     
 total        electrons   138.057246546969     
 augmentation electrons   480.596343659140     
 soft         electrons  0.000000000000000E+000
 augmentation electrons   480.596343659140     
 soft         electrons  0.000000000000000E+000
 augmentation electrons   480.596343659140     
 soft         electrons  0.000000000000000E+000
 augmentation electrons   480.596343659140     
 soft         electrons  0.000000000000000E+000
 augmentation electrons   480.596343659140     
 soft         electrons  0.000000000000000E+000
 augmentation electrons   480.596343659140     
 soft         electrons  0.000000000000000E+000
 augmentation electrons   480.596343659140     
 soft         electrons  0.000000000000000E+000
 augmentation electrons   480.596343659140     
 augmentation electrons   480.596343659140     
 soft         electrons  0.000000000000000E+000
 augmentation electrons   480.596343659140     
 soft         electrons  0.000000000000000E+000
 augmentation electrons   480.596343659140     
 soft         electrons  0.000000000000000E+000
 augmentation electrons   480.596343659140     
 soft         electrons  0.000000000000000E+000
 augmentation electrons   480.596343659140     
 augmentation electrons   480.596343659140     
 soft         electrons  0.000000000000000E+000
 augmentation electrons   480.596343659140     
 augmentation electrons   480.596343659140     
 soft         electrons  0.000000000000000E+000
 augmentation electrons   480.596343659140     
 soft         electrons  0.000000000000000E+000
 augmentation electrons   480.596343659140     
 soft         electrons  0.000000000000000E+000
 augmentation electrons   480.596343659140     
 soft         electrons  0.000000000000000E+000
 augmentation electrons   480.596343659140     
 soft         electrons  0.000000000000000E+000
 augmentation electrons   480.596343659140     
 soft         electrons  0.000000000000000E+000
 augmentation electrons   480.596343659140     
 soft         electrons  0.000000000000000E+000
 augmentation electrons   480.596343659140     
 soft         electrons  0.000000000000000E+000
 augmentation electrons   480.596343659140     
 soft         electrons  0.000000000000000E+000
 augmentation electrons   480.596343659140     
 soft         electrons  0.000000000000000E+000
 augmentation electrons   480.596343659140     
 soft         electrons  0.000000000000000E+000
 augmentation electrons   480.596343659140     
 soft         electrons  0.000000000000000E+000
 augmentation electrons   480.596343659140     
 soft         electrons  0.000000000000000E+000
 augmentation electrons   480.596343659140     
 soft         electrons  0.000000000000000E+000
 augmentation electrons   480.596343659140     
 soft         electrons  0.000000000000000E+000
 augmentation electrons   480.596343659140     
 soft         electrons  0.000000000000000E+000
 augmentation electrons   480.596343659140     
 soft         electrons  0.000000000000000E+000
 augmentation electrons   480.596343659140     
 soft         electrons  0.000000000000000E+000
 augmentation electrons   480.596343659140     
 soft         electrons  0.000000000000000E+000
 augmentation electrons   480.596343659140     
 soft         electrons  0.000000000000000E+000
 augmentation electrons   480.596343659140     
 soft         electrons  0.000000000000000E+000
 augmentation electrons   480.596343659140     
 soft         electrons  0.000000000000000E+000
 augmentation electrons   480.596343659140     
 soft         electrons  0.000000000000000E+000
 augmentation electrons   480.596343659140     
 soft         electrons  0.000000000000000E+000
 augmentation electrons   480.596343659140     
 soft         electrons  0.000000000000000E+000
 augmentation electrons   480.596343659140     
 soft         electrons  0.000000000000000E+000
 augmentation electrons   480.596343659140     
 soft         electrons  0.000000000000000E+000
 augmentation electrons   480.596343659140     
 soft         electrons  0.000000000000000E+000
 augmentation electrons   480.596343659140     
 soft         electrons  0.000000000000000E+000
 augmentation electrons   480.596343659140     
 soft         electrons  0.000000000000000E+000
 augmentation electrons   480.596343659140     
 soft         electrons  0.000000000000000E+000
 augmentation electrons   480.596343659140     
 soft         electrons  0.000000000000000E+000
 augmentation electrons   480.596343659140     
 soft         electrons  0.000000000000000E+000
 augmentation electrons   480.596343659140     
 soft         electrons  0.000000000000000E+000
 augmentation electrons   480.596343659140     
 soft         electrons  0.000000000000000E+000
 augmentation electrons   480.596343659140     
 soft         electrons  0.000000000000000E+000
 soft         electrons  0.000000000000000E+000
 augmentation electrons   480.596343659140     
 soft         electrons  0.000000000000000E+000
 augmentation electrons   480.596343659140     
 soft         electrons  0.000000000000000E+000
 total        electrons   480.596343659140     
 augmentation electrons   480.596343659140     
 soft         electrons  0.000000000000000E+000
 augmentation electrons   480.596343659140     
 soft         electrons  0.000000000000000E+000
 total        electrons   480.596343659140     
 augmentation electrons   480.596343659140     
 soft         electrons  0.000000000000000E+000
 augmentation electrons   480.596343659140     
 soft         electrons  0.000000000000000E+000
 total        electrons   480.596343659140     
 augmentation electrons   480.596343659140     
 soft         electrons  0.000000000000000E+000
 augmentation electrons   480.596343659140     
 soft         electrons  0.000000000000000E+000
 total        electrons   480.596343659140     
 augmentation electrons   480.596343659140     
 soft         electrons  0.000000000000000E+000
 augmentation electrons   480.596343659140     
 soft         electrons  0.000000000000000E+000
 total        electrons   480.596343659140     
 augmentation electrons   480.596343659140     
 soft         electrons  0.000000000000000E+000
 augmentation electrons   480.596343659140     
 soft         electrons  0.000000000000000E+000
 total        electrons   480.596343659140     
 augmentation electrons   480.596343659140     
 soft         electrons  0.000000000000000E+000
 augmentation electrons   480.596343659140     
 soft         electrons  0.000000000000000E+000
 total        electrons   480.596343659140     
 augmentation electrons   480.596343659140     
 soft         electrons  0.000000000000000E+000
 augmentation electrons   480.596343659140     
 soft         electrons  0.000000000000000E+000
 total        electrons   480.596343659140     
 augmentation electrons   480.596343659140     
 soft         electrons  0.000000000000000E+000
 augmentation electrons   480.596343659140     
 soft         electrons  0.000000000000000E+000
 total        electrons   480.596343659140     
 augmentation electrons   480.596343659140     
 soft         electrons  0.000000000000000E+000
 augmentation electrons   480.596343659140     
 soft         electrons  0.000000000000000E+000
 total        electrons   480.596343659140     
 soft         electrons  0.000000000000000E+000
 augmentation electrons   480.596343659140     
 soft         electrons  0.000000000000000E+000
 total        electrons   480.596343659140     
 total        electrons   480.596343659140     
 soft         electrons  0.000000000000000E+000
 total        electrons   480.596343659140     
 total        electrons   480.596343659140     
 total        electrons   480.596343659140     
 total        electrons   480.596343659140     
 total        electrons   480.596343659140     
 total        electrons   480.596343659140     
 total        electrons   480.596343659140     
 total        electrons   480.596343659140     
 total        electrons   480.596343659140     
 total        electrons   480.596343659140     
 total        electrons   480.596343659140     
 total        electrons   480.596343659140     
 total        electrons   480.596343659140     
 total        electrons   480.596343659140     
 total        electrons   480.596343659140     
 total        electrons   480.596343659140     
 total        electrons   480.596343659140     
 total        electrons   480.596343659140     
 total        electrons   480.596343659140     
 total        electrons   480.596343659140     
 total        electrons   480.596343659140     
 total        electrons   480.596343659140     
 total        electrons   480.596343659140     
 total        electrons   480.596343659140     
 total        electrons   480.596343659140     
 total        electrons   480.596343659140     
 total        electrons   480.596343659140     
 total        electrons   480.596343659140     
 total        electrons   480.596343659140     
 total        electrons   480.596343659140     
 total        electrons   480.596343659140     
 total        electrons   480.596343659140     
 total        electrons   480.596343659140     
 total        electrons   480.596343659140     
 total        electrons   480.596343659140     
 total        electrons   480.596343659140     
 total        electrons   480.596343659140     
 total        electrons   480.596343659140     
 total        electrons   480.596343659140     
 total        electrons   480.596343659140     
 total        electrons   480.596343659140     
 total        electrons   480.596343659140     
 total        electrons   480.596343659140     
 total        electrons   480.596343659140     
 total        electrons   480.596343659140     
 total        electrons   480.596343659140     
 total        electrons   480.596343659140     
 total        electrons   480.596343659140     
 total        electrons   480.596343659140     
 total        electrons   480.596343659140     
 total        electrons   480.596343659140     
 total        electrons   480.596343659140     
 total        electrons   480.596343659140     
 total        electrons   480.596343659140     
 total        electrons   480.596343659140     
 total        electrons   480.596343659140     
 total        electrons   480.596343659140     
 total        electrons   480.596343659140     
 total        electrons   480.596343659140     
 total        electrons   480.596343659140     
 entering main loop
       N       E                     dE             d eps       ncg     rms          rms(c)
Total vdW correction in eV:     53.7393506
RMM:   1     0.124179865234E+04    0.12418E+04   -0.27932E+04   510   0.785E+02
RMM:   2     0.544463582583E+03   -0.69734E+03   -0.75638E+03   510   0.166E+02
RMM:   3     0.309840321002E+03   -0.23462E+03   -0.29878E+03   510   0.832E+01
RMM:   4     0.138132425000E+03   -0.17171E+03   -0.14790E+03   510   0.790E+01
RMM:   5     0.218507289828E+02   -0.11628E+03   -0.92827E+02   510   0.637E+01
RMM:   6    -0.421409414204E+02   -0.63992E+02   -0.48633E+02   510   0.463E+01
RMM:   7    -0.701977584197E+02   -0.28057E+02   -0.20853E+02   510   0.272E+01
RMM:   8    -0.782304594836E+02   -0.80327E+01   -0.63204E+01   510   0.144E+01
RMM:   9    -0.805520651357E+02   -0.23216E+01   -0.22191E+01  1491   0.781E+00
RMM:  10    -0.808264091555E+02   -0.27434E+00   -0.29802E+00  1756   0.282E+00
RMM:  11    -0.808255725704E+02    0.83659E-03   -0.15739E-01  1717   0.692E-01
RMM:  12    -0.808280578741E+02   -0.24853E-02   -0.33540E-02  1794   0.286E-01    0.202E+01
Total vdW correction in eV:     53.8137878
RMM:  13    -0.709136195269E+02    0.99144E+01   -0.62662E+01  1403   0.145E+01    0.795E+00
Total vdW correction in eV:     53.7806262
RMM:  14    -0.976812355829E+02   -0.26768E+02   -0.14540E+01  1598   0.369E+00    0.109E+01
Total vdW correction in eV:     53.7636547
RMM:  15    -0.693769875030E+02    0.28304E+02   -0.33912E+00  1444   0.161E+00    0.496E+00
Total vdW correction in eV:     53.7081083
RMM:  16    -0.693921663474E+02   -0.15179E-01   -0.14305E+00  1597   0.200E+00    0.255E+00
Total vdW correction in eV:     53.7024745
RMM:  17    -0.690429418117E+02    0.34922E+00   -0.44075E-01  1335   0.135E+00    0.862E-01
Total vdW correction in eV:     53.7153813
RMM:  18    -0.690204510833E+02    0.22491E-01   -0.12703E-01  1573   0.676E-01    0.351E-01
Total vdW correction in eV:     53.7214790
RMM:  19    -0.690180524493E+02    0.23986E-02   -0.21268E-02  1379   0.279E-01    0.218E-01
Total vdW correction in eV:     53.7278306
RMM:  20    -0.690176329623E+02    0.41949E-03   -0.94408E-03  1463   0.190E-01    0.752E-02
Total vdW correction in eV:     53.7391927
RMM:  21    -0.690120844306E+02    0.55485E-02   -0.22004E-03  1452   0.815E-02    0.450E-02
Total vdW correction in eV:     53.7452262
RMM:  22    -0.690064643351E+02    0.56201E-02   -0.62449E-04  1469   0.394E-02    0.321E-02
Total vdW correction in eV:     53.7512791
RMM:  23    -0.690037514384E+02    0.27129E-02   -0.32657E-04  1199   0.364E-02    0.163E-02
Total vdW correction in eV:     53.7567905
RMM:  24    -0.690056212711E+02   -0.18698E-02   -0.31056E-04  1123   0.401E-02    0.131E-02
Total vdW correction in eV:     53.7590127
RMM:  25    -0.690061465018E+02   -0.52523E-03   -0.19484E-04  1068   0.324E-02    0.656E-03
Total vdW correction in eV:     53.7602873
RMM:  26    -0.690060065318E+02    0.13997E-03   -0.36232E-04  1071   0.303E-02    0.588E-03
Total vdW correction in eV:     53.7602733
RMM:  27    -0.690059884408E+02    0.18091E-04   -0.67279E-05   989   0.127E-02    0.190E-03
Total vdW correction in eV:     53.7602076
RMM:  28    -0.690059976949E+02   -0.92541E-05   -0.65127E-05   890   0.126E-02    0.106E-03
Total vdW correction in eV:     53.7600740
RMM:  29    -0.690060054934E+02   -0.77985E-05   -0.39353E-05   842   0.936E-03    0.675E-04
Total vdW correction in eV:     53.7600246
RMM:  30    -0.690060220330E+02   -0.16540E-04   -0.85485E-06   803   0.517E-03    0.862E-04
Total vdW correction in eV:     53.7599288
RMM:  31    -0.690060747988E+02   -0.52766E-04   -0.12880E-05   765   0.637E-03    0.172E-03
Total vdW correction in eV:     53.7599094
RMM:  32    -0.690060777507E+02   -0.29519E-05   -0.69864E-06   741   0.416E-03
Total vdW correction in eV:     53.7598258
Total vdW correction in eV:     53.7598951
   1 F= -.69006078E+02 E0= -.69006078E+02  d E =0.000000E+00
 augmentation electrons   4.45955490547193     
 soft         electrons   133.575430005215     
 augmentation electrons   4.45955490547193     
 soft         electrons   133.575430005215     
 augmentation electrons   4.45955490547193     
 soft         electrons   133.575430005215     
 augmentation electrons   4.45955490547193     
 soft         electrons   133.575430005215     
 augmentation electrons   4.45955490547193     
 soft         electrons   133.575430005215     
 augmentation electrons   4.45955490547193     
 soft         electrons   133.575430005215     
 augmentation electrons   4.45955490547193     
 soft         electrons   133.575430005215     
 augmentation electrons   4.45955490547193     
 soft         electrons   133.575430005215     
 augmentation electrons   4.45955490547193     
 augmentation electrons   4.45955490547193     
 soft         electrons   133.575430005215     
 augmentation electrons   4.45955490547193     
 soft         electrons   133.575430005215     
 augmentation electrons   4.45955490547193     
 soft         electrons   133.575430005215     
 augmentation electrons   4.45955490547193     
 soft         electrons   133.575430005215     
 augmentation electrons   4.45955490547193     
 soft         electrons   133.575430005215     
 augmentation electrons   4.45955490547193     
 soft         electrons   133.575430005215     
 augmentation electrons   4.45955490547193     
 soft         electrons   133.575430005215     
 augmentation electrons   4.45955490547193     
 augmentation electrons   4.45955490547193     
 soft         electrons   133.575430005215     
 augmentation electrons   4.45955490547193     
 soft         electrons   133.575430005215     
 augmentation electrons   4.45955490547193     
 soft         electrons   133.575430005215     
 augmentation electrons   4.45955490547193     
 soft         electrons   133.575430005215     
 augmentation electrons   4.45955490547193     
 soft         electrons   133.575430005215     
 augmentation electrons   4.45955490547193     
 soft         electrons   133.575430005215     
 augmentation electrons   4.45955490547193     
 soft         electrons   133.575430005215     
 augmentation electrons   4.45955490547193     
 soft         electrons   133.575430005215     
 augmentation electrons   4.45955490547193     
 soft         electrons   133.575430005215     
 augmentation electrons   4.45955490547193     
 soft         electrons   133.575430005215     
 augmentation electrons   4.45955490547193     
 soft         electrons   133.575430005215     
 augmentation electrons   4.45955490547193     
 soft         electrons   133.575430005215     
 augmentation electrons   4.45955490547193     
 soft         electrons   133.575430005215     
 augmentation electrons   4.45955490547193     
 soft         electrons   133.575430005215     
 augmentation electrons   4.45955490547193     
 soft         electrons   133.575430005215     
 augmentation electrons   4.45955490547193     
 soft         electrons   133.575430005215     
 augmentation electrons   4.45955490547193     
 soft         electrons   133.575430005215     
 augmentation electrons   4.45955490547193     
 soft         electrons   133.575430005215     
 augmentation electrons   4.45955490547193     
 soft         electrons   133.575430005215     
 augmentation electrons   4.45955490547193     
 soft         electrons   133.575430005215     
 augmentation electrons   4.45955490547193     
 soft         electrons   133.575430005215     
 augmentation electrons   4.45955490547193     
 soft         electrons   133.575430005215     
 augmentation electrons   4.45955490547193     
 augmentation electrons   4.45955490547193     
 soft         electrons   133.575430005215     
 augmentation electrons   4.45955490547193     
 soft         electrons   133.575430005215     
 augmentation electrons   4.45955490547193     
 soft         electrons   133.575430005215     
 augmentation electrons   4.45955490547193     
 soft         electrons   133.575430005215     
 augmentation electrons   4.45955490547193     
 soft         electrons   133.575430005215     
 augmentation electrons   4.45955490547193     
 soft         electrons   133.575430005215     
 augmentation electrons   4.45955490547193     
 soft         electrons   133.575430005215     
 augmentation electrons   4.45955490547193     
 soft         electrons   133.575430005215     
 augmentation electrons   4.45955490547193     
 soft         electrons   133.575430005215     
 soft         electrons   133.575430005215     
 augmentation electrons   4.45955490547193     
 soft         electrons   133.575430005215     
 augmentation electrons   4.45955490547193     
 soft         electrons   133.575430005215     
 total        electrons   138.034984910687     
 augmentation electrons   4.45955490547193     
 soft         electrons   133.575430005215     
 augmentation electrons   4.45955490547193     
 soft         electrons   133.575430005215     
 total        electrons   138.034984910687     
 augmentation electrons   4.45955490547193     
 soft         electrons   133.575430005215     
 augmentation electrons   4.45955490547193     
 soft         electrons   133.575430005215     
 total        electrons   138.034984910687     
 augmentation electrons   4.45955490547193     
 soft         electrons   133.575430005215     
 augmentation electrons   4.45955490547193     
 soft         electrons   133.575430005215     
 total        electrons   138.034984910687     
 augmentation electrons   4.45955490547193     
 soft         electrons   133.575430005215     
 augmentation electrons   4.45955490547193     
 soft         electrons   133.575430005215     
 total        electrons   138.034984910687     
 augmentation electrons   4.45955490547193     
 soft         electrons   133.575430005215     
 augmentation electrons   4.45955490547193     
 soft         electrons   133.575430005215     
 total        electrons   138.034984910687     
 augmentation electrons   4.45955490547193     
 soft         electrons   133.575430005215     
 augmentation electrons   4.45955490547193     
 soft         electrons   133.575430005215     
 total        electrons   138.034984910687     
 augmentation electrons   4.45955490547193     
 soft         electrons   133.575430005215     
 augmentation electrons   4.45955490547193     
 soft         electrons   133.575430005215     
 total        electrons   138.034984910687     
 augmentation electrons   4.45955490547193     
 soft         electrons   133.575430005215     
 augmentation electrons   4.45955490547193     
 soft         electrons   133.575430005215     
 total        electrons   138.034984910687     
 augmentation electrons   4.45955490547193     
 soft         electrons   133.575430005215     
 augmentation electrons   4.45955490547193     
 soft         electrons   133.575430005215     
 total        electrons   138.034984910687     
 augmentation electrons   4.45955490547193     
 soft         electrons   133.575430005215     
 augmentation electrons   4.45955490547193     
 soft         electrons   133.575430005215     
 total        electrons   138.034984910687     
 soft         electrons   133.575430005215     
 augmentation electrons   4.45955490547193     
 soft         electrons   133.575430005215     
 total        electrons   138.034984910687     
 total        electrons   138.034984910687     
 soft         electrons   133.575430005215     
 total        electrons   138.034984910687     
 total        electrons   138.034984910687     
 total        electrons   138.034984910687     
 total        electrons   138.034984910687     
 total        electrons   138.034984910687     
 total        electrons   138.034984910687     
 total        electrons   138.034984910687     
 total        electrons   138.034984910687     
 total        electrons   138.034984910687     
 total        electrons   138.034984910687     
 total        electrons   138.034984910687     
 total        electrons   138.034984910687     
 total        electrons   138.034984910687     
 total        electrons   138.034984910687     
 total        electrons   138.034984910687     
 total        electrons   138.034984910687     
 total        electrons   138.034984910687     
 total        electrons   138.034984910687     
 total        electrons   138.034984910687     
 total        electrons   138.034984910687     
 total        electrons   138.034984910687     
 total        electrons   138.034984910687     
 total        electrons   138.034984910687     
 total        electrons   138.034984910687     
 total        electrons   138.034984910687     
 total        electrons   138.034984910687     
 total        electrons   138.034984910687     
 total        electrons   138.034984910687     
 total        electrons   138.034984910687     
 total        electrons   138.034984910687     
 total        electrons   138.034984910687     
 total        electrons   138.034984910687     
 total        electrons   138.034984910687     
 total        electrons   138.034984910687     
 total        electrons   138.034984910687     
 total        electrons   138.034984910687     
 total        electrons   138.034984910687     
 total        electrons   138.034984910687     
 total        electrons   138.034984910687     
 total        electrons   138.034984910687     
 total        electrons   138.034984910687     
 total        electrons   138.034984910687     
 total        electrons   138.034984910687     
 total        electrons   138.034984910687     
 total        electrons   138.034984910687     
 total        electrons   138.034984910687     
 total        electrons   138.034984910687     
 total        electrons   138.034984910687     
 total        electrons   138.034984910687     
 total        electrons   138.034984910687     
 total        electrons   138.034984910687     
 total        electrons   138.034984910687     
 total        electrons   138.034984910687     
 total        electrons   138.034984910687     
 total        electrons   138.034984910687     
 total        electrons   138.034984910687     
 total        electrons   138.034984910687     
 total        electrons   138.034984910687     
 total        electrons   138.034984910687     
