<?xml version="1.0" encoding="ISO-8859-1"?>
<modeling>
 <generator>
  <i name="program" type="string">vasp </i>
  <i name="version" type="string">5.4.4.18Apr17-6-g9f103f2a35  </i>
  <i name="subversion" type="string">(build Jun 08 2018 12:06:12) complex            parallel </i>
  <i name="platform" type="string">LinuxIFC </i>
  <i name="date" type="string">2019 06 06 </i>
  <i name="time" type="string">07:08:14 </i>
 </generator>
 <incar>
  <i type="string" name="SYSTEM"> Mg_slab_in_a_box</i>
  <i type="string" name="PREC">accurate</i>
  <i type="string" name="ALGO"> V</i>
  <i type="int" name="NELM">   300</i>
  <i type="int" name="NELMIN">     6</i>
  <i name="EDIFF">      0.00000500</i>
  <i name="ENCUT">    520.00000000</i>
  <i type="string" name="LREAL"> AUTO</i>
  <i type="logical" name="LPLANE"> T  </i>
  <i type="int" name="ISMEAR">    -5</i>
  <i type="logical" name="LWAVE"> F  </i>
  <i type="logical" name="LCHARG"> T  </i>
  <i type="logical" name="LVTOT"> T  </i>
  <i type="logical" name="LVHAR"> T  </i>
  <i type="logical" name="LSCALU"> F  </i>
  <i type="logical" name="LASPH"> T  </i>
  <i type="logical" name="LAECHG"> T  </i>
  <v type="int" name="KPOINT_BSE">    -1     0     0     0</v>
  <i type="int" name="NELM">   300</i>
  <i type="string" name="GGA"> BO</i>
  <i name="PARAM1">      0.18333333</i>
  <i name="PARAM2">      0.22000000</i>
  <i type="logical" name="LUSE_VDW"> T  </i>
  <i name="AGGAC">      0.00000000</i>
  <i type="logical" name="LDIPOL"> T  </i>
  <i type="int" name="IDIPOL">     3</i>
  <i type="logical" name="LASPH"> T  </i>
 </incar>
 <structure name="primitive_cell" >
  <crystal>
   <varray name="basis" >
    <v>       9.55575275       0.00000000       0.00000000 </v>
    <v>      -4.77787638       8.27552464       0.00000000 </v>
    <v>       0.00000000       0.00000000      32.62509537 </v>
   </varray>
   <i name="volume">   2579.95558872 </i>
   <varray name="rec_basis" >
    <v>       0.10464900       0.06041913       0.00000000 </v>
    <v>       0.00000000       0.12083826       0.00000000 </v>
    <v>       0.00000000       0.00000000       0.03065125 </v>
   </varray>
  </crystal>
  <varray name="positions" >
   <v>       0.00000000       0.00000000       0.00000000 </v>
   <v>       0.00000002      -0.33333328       0.00000000 </v>
   <v>      -0.33333330      -0.33333328       0.00000000 </v>
   <v>      -0.33333332       0.00000000       0.00000000 </v>
   <v>       0.33333334       0.00000000       0.00000000 </v>
   <v>       0.00000001       0.33333336       0.00000000 </v>
   <v>       0.33333335       0.33333336       0.00000000 </v>
   <v>      -0.22222216      -0.11111106       0.07982145 </v>
   <v>       0.11111116      -0.11111106       0.07982145 </v>
   <v>       0.11111113       0.22222222       0.07982145 </v>
   <v>      -0.22222219      -0.44444439       0.07982145 </v>
   <v>      -0.22222221       0.22222222       0.07982145 </v>
   <v>       0.44444450       0.22222222       0.07982145 </v>
   <v>      -0.00235124      -0.00170139       0.15812519 </v>
   <v>       0.33333336      -0.33333328       0.00000000 </v>
   <v>      -0.33333332       0.33333336       0.00000000 </v>
   <v>       0.44444450      -0.44444439       0.07982145 </v>
   <v>       0.44444451      -0.11111106       0.07982145 </v>
   <v>       0.11111114      -0.44444439       0.07982145 </v>
   <v>       0.33127952       0.33103253       0.15694935 </v>
   <v>       0.33192496      -0.00162822       0.15720926 </v>
   <v>      -0.00100924       0.33261417       0.15749120 </v>
   <v>      -0.33455174      -0.00264737       0.15765655 </v>
   <v>      -0.00239740      -0.33512390       0.15773479 </v>
   <v>      -0.33200361      -0.33380660       0.15889050 </v>
   <v>       0.33103594      -0.33411829       0.15795044 </v>
   <v>      -0.33436478       0.33378794       0.15879373 </v>
   <v>       0.10491255      -0.11433031       0.23438945 </v>
   <v>       0.10583686       0.21744197       0.23573110 </v>
   <v>      -0.22325021      -0.11744734       0.24062267 </v>
   <v>      -0.22881673       0.21774407       0.23482956 </v>
   <v>       0.44382072       0.22384403       0.23571221 </v>
   <v>      -0.23189588      -0.45171484       0.24159029 </v>
   <v>       0.44252082      -0.44563263       0.23450897 </v>
   <v>       0.44175811      -0.11831623       0.23617868 </v>
   <v>       0.11279400      -0.44322645       0.23658367 </v>
   <v>       0.32409783      -0.00246277       0.30872357 </v>
   <v>       0.31866712       0.32401571       0.31174748 </v>
   <v>      -0.01172140       0.33027462       0.31041080 </v>
   <v>      -0.00124799      -0.32767261       0.31393229 </v>
   <v>      -0.33659965       0.00034842       0.31384342 </v>
   <v>      -0.00028620       0.00290886       0.33091279 </v>
   <v>      -0.34172730      -0.33070424       0.32881282 </v>
   <v>       0.41956793      -0.45706220       0.33048466 </v>
   <v>      -0.34224613       0.31584677       0.32590058 </v>
   <v>       0.31419025      -0.33080017       0.33048248 </v>
   <v>       0.24517585      -0.05628302       0.38342159 </v>
   <v>      -0.14025040       0.21793714       0.38472206 </v>
   <v>      -0.00478537       0.01004538       0.39633634 </v>
   <v>      -0.35460304      -0.38749206       0.38766187 </v>
   <v>      -0.02668126       0.09306714       0.40825279 </v>
   <v>       0.08493931       0.01102045       0.41137943 </v>
   <v>      -0.27090109      -0.30600418       0.40510914 </v>
   <v>      -0.35862487       0.46106099       0.39193485 </v>
   <v>      -0.36707912       0.34400658       0.38800297 </v>
   <v>       0.27966272      -0.03497542       0.41271323 </v>
   <v>      -0.09584001       0.24272811       0.41316636 </v>
   <v>      -0.00074670       0.35079701       0.41041844 </v>
   <v>       0.37996252       0.07014328       0.41154945 </v>
   <v>       0.32180359      -0.31369538       0.39566499 </v>
   <v>       0.31928396      -0.21933150       0.40745009 </v>
   <v>       0.40955520      -0.32240371       0.40871504 </v>
   <v>      -0.28842062       0.33765383       0.40594567 </v>
  </varray>
 </structure>
 <varray name="primitive_index" >
  <v type="int" >        1 </v>
  <v type="int" >        7 </v>
  <v type="int" >       25 </v>
  <v type="int" >       19 </v>
  <v type="int" >       10 </v>
  <v type="int" >        4 </v>
  <v type="int" >       13 </v>
  <v type="int" >       44 </v>
  <v type="int" >       32 </v>
  <v type="int" >       28 </v>
  <v type="int" >       42 </v>
  <v type="int" >       40 </v>
  <v type="int" >       34 </v>
  <v type="int" >        2 </v>
  <v type="int" >       16 </v>
  <v type="int" >       22 </v>
  <v type="int" >       36 </v>
  <v type="int" >       38 </v>
  <v type="int" >       30 </v>
  <v type="int" >       14 </v>
  <v type="int" >       11 </v>
  <v type="int" >        5 </v>
  <v type="int" >       20 </v>
  <v type="int" >        8 </v>
  <v type="int" >       26 </v>
  <v type="int" >       17 </v>
  <v type="int" >       23 </v>
  <v type="int" >       33 </v>
  <v type="int" >       29 </v>
  <v type="int" >       45 </v>
  <v type="int" >       41 </v>
  <v type="int" >       35 </v>
  <v type="int" >       43 </v>
  <v type="int" >       37 </v>
  <v type="int" >       39 </v>
  <v type="int" >       31 </v>
  <v type="int" >       12 </v>
  <v type="int" >       15 </v>
  <v type="int" >        6 </v>
  <v type="int" >        9 </v>
  <v type="int" >       21 </v>
  <v type="int" >        3 </v>
  <v type="int" >       27 </v>
  <v type="int" >       61 </v>
  <v type="int" >       24 </v>
  <v type="int" >       18 </v>
  <v type="int" >       55 </v>
  <v type="int" >       57 </v>
  <v type="int" >       46 </v>
  <v type="int" >       50 </v>
  <v type="int" >       52 </v>
  <v type="int" >       53 </v>
  <v type="int" >       60 </v>
  <v type="int" >       58 </v>
  <v type="int" >       49 </v>
  <v type="int" >       47 </v>
  <v type="int" >       48 </v>
  <v type="int" >       56 </v>
  <v type="int" >       54 </v>
  <v type="int" >       51 </v>
  <v type="int" >       62 </v>
  <v type="int" >       63 </v>
  <v type="int" >       59 </v>
 </varray>
 <kpoints>
  <generation param="Gamma">
   <v type="int" name="divisions">       3        3        1 </v>
   <v name="usershift">      0.00000000       0.00000000       0.00000000 </v>
   <v name="genvec1">      0.33333333       0.00000000       0.00000000 </v>
   <v name="genvec2">      0.00000000       0.33333333       0.00000000 </v>
   <v name="genvec3">      0.00000000       0.00000000       1.00000000 </v>
   <v name="shift">      0.00000000       0.00000000       0.00000000 </v>
  </generation>
  <varray name="kpointlist" >
   <v>       0.00000000       0.00000000       0.00000000 </v>
   <v>       0.33333333      -0.00000000       0.00000000 </v>
   <v>       0.00000000       0.33333333       0.00000000 </v>
   <v>       0.33333333       0.33333333       0.00000000 </v>
   <v>      -0.33333333       0.33333333       0.00000000 </v>
  </varray>
  <varray name="weights" >
   <v>       0.11111111 </v>
   <v>       0.22222222 </v>
   <v>       0.22222222 </v>
   <v>       0.22222222 </v>
   <v>       0.22222222 </v>
  </varray>
  <varray name="tetrahedronlist"  type="int" >
   <v type="int" >        2        2        3        3        4 </v>
   <v type="int" >        2        1        2        3        3 </v>
   <v type="int" >        2        1        1        2        3 </v>
   <v type="int" >        2        2        3        4        4 </v>
   <v type="int" >        2        2        2        3        4 </v>
   <v type="int" >        2        1        2        2        3 </v>
   <v type="int" >        2        2        4        4        5 </v>
   <v type="int" >        2        2        2        4        4 </v>
   <v type="int" >        4        2        2        2        4 </v>
   <v type="int" >        2        2        4        5        5 </v>
   <v type="int" >        2        2        2        4        5 </v>
   <v type="int" >        2        1        3        5        5 </v>
   <v type="int" >        2        1        2        5        5 </v>
   <v type="int" >        2        1        2        2        5 </v>
   <v type="int" >        2        1        3        3        5 </v>
   <v type="int" >        2        1        1        3        5 </v>
   <v type="int" >        2        1        1        2        5 </v>
   <v type="int" >        2        3        3        4        5 </v>
   <v type="int" >        4        3        3        3        4 </v>
   <v type="int" >        2        3        4        5        5 </v>
   <v type="int" >        2        3        4        4        5 </v>
   <v type="int" >        2        3        3        4        4 </v>
   <v type="int" >        4        4        5        5        5 </v>
   <v type="int" >        2        4        4        5        5 </v>
  </varray>
  <i name="volumeweight">      0.01851852 </i>
 </kpoints>
 <parameters>
  <separator name="general" >
   <i type="string" name="SYSTEM">Mg_slab_in_a_box</i>
   <i type="logical" name="LCOMPAT"> F  </i>
  </separator>
  <separator name="electronic" >
   <i type="string" name="PREC">accura</i>
   <i name="ENMAX">    520.00000000</i>
   <i name="ENAUG">    605.39200000</i>
   <i name="EDIFF">      0.00000500</i>
   <i type="int" name="IALGO">    48</i>
   <i type="int" name="IWAVPR">    10</i>
   <i type="int" name="NBANDS">   102</i>
   <i name="NELECT">    138.00000000</i>
   <i type="int" name="TURBO">     0</i>
   <i type="int" name="IRESTART">     0</i>
   <i type="int" name="NREBOOT">     0</i>
   <i type="int" name="NMIN">     0</i>
   <i name="EREF">      0.00000000</i>
   <separator name="electronic smearing" >
    <i type="int" name="ISMEAR">    -5</i>
    <i name="SIGMA">      0.20000000</i>
    <i name="KSPACING">      0.50000000</i>
    <i type="logical" name="KGAMMA"> T  </i>
   </separator>
   <separator name="electronic projectors" >
    <i type="logical" name="LREAL"> T  </i>
    <v name="ROPT">     -0.00025000     -0.00025000     -0.00025000</v>
    <i type="int" name="LMAXPAW">  -100</i>
    <i type="int" name="LMAXMIX">     2</i>
    <i type="logical" name="NLSPLINE"> F  </i>
   </separator>
   <separator name="electronic startup" >
    <i type="int" name="ISTART">     0</i>
    <i type="int" name="ICHARG">     2</i>
    <i type="int" name="INIWAV">     1</i>
   </separator>
   <separator name="electronic spin" >
    <i type="int" name="ISPIN">     1</i>
    <i type="logical" name="LNONCOLLINEAR"> F  </i>
    <v name="MAGMOM">      1.00000000      1.00000000      1.00000000      1.00000000      1.00000000      1.00000000      1.00000000      1.00000000      1.00000000      1.00000000      1.00000000      1.00000000      1.00000000      1.00000000      1.00000000      1.00000000      1.00000000      1.00000000      1.00000000      1.00000000
      1.00000000      1.00000000      1.00000000      1.00000000      1.00000000      1.00000000      1.00000000      1.00000000      1.00000000      1.00000000      1.00000000      1.00000000      1.00000000      1.00000000      1.00000000      1.00000000      1.00000000      1.00000000      1.00000000      1.00000000
      1.00000000      1.00000000      1.00000000      1.00000000      1.00000000      1.00000000      1.00000000      1.00000000      1.00000000      1.00000000      1.00000000      1.00000000      1.00000000      1.00000000      1.00000000      1.00000000      1.00000000      1.00000000      1.00000000      1.00000000
      1.00000000      1.00000000      1.00000000</v>
    <i name="NUPDOWN">     -1.00000000</i>
    <i type="logical" name="LSORBIT"> F  </i>
    <v name="SAXIS">      0.00000000      0.00000000      1.00000000</v>
    <i type="logical" name="LSPIRAL"> F  </i>
    <v name="QSPIRAL">      0.00000000      0.00000000      0.00000000</v>
    <i type="logical" name="LZEROZ"> F  </i>
   </separator>
   <separator name="electronic exchange-correlation" >
    <i type="logical" name="LASPH"> T  </i>
    <i type="logical" name="LMETAGGA"> F  </i>
   </separator>
   <separator name="electronic convergence" >
    <i type="int" name="NELM">   300</i>
    <i type="int" name="NELMDL">   -12</i>
    <i type="int" name="NELMIN">     6</i>
    <i name="ENINI">    520.00000000</i>
    <separator name="electronic convergence detail" >
     <i type="logical" name="LDIAG"> T  </i>
     <i type="logical" name="LSUBROT"> F  </i>
     <i name="WEIMIN">      0.00000000</i>
     <i name="EBREAK">      0.00000001</i>
     <i name="DEPER">      0.30000000</i>
     <i type="int" name="NRMM">     4</i>
     <i name="TIME">      0.40000000</i>
    </separator>
   </separator>
   <separator name="electronic mixer" >
    <i name="AMIX">      0.40000000</i>
    <i name="BMIX">      1.00000000</i>
    <i name="AMIN">      0.10000000</i>
    <i name="AMIX_MAG">      1.60000000</i>
    <i name="BMIX_MAG">      1.00000000</i>
    <separator name="electronic mixer details" >
     <i type="int" name="IMIX">     4</i>
     <i type="logical" name="MIXFIRST"> F  </i>
     <i type="int" name="MAXMIX">   -45</i>
     <i name="WC">    100.00000000</i>
     <i type="int" name="INIMIX">     1</i>
     <i type="int" name="MIXPRE">     1</i>
     <i type="int" name="MREMOVE">     5</i>
    </separator>
   </separator>
   <separator name="electronic dipolcorrection" >
    <i type="logical" name="LDIPOL"> T  </i>
    <i type="logical" name="LMONO"> F  </i>
    <i type="int" name="IDIPOL">     3</i>
    <i name="EPSILON">      1.00000000</i>
    <v name="DIPOL">   -100.00000000   -100.00000000   -100.00000000</v>
    <i name="EFIELD">      0.00000000</i>
   </separator>
  </separator>
  <separator name="grids" >
   <i type="int" name="NGX">    72</i>
   <i type="int" name="NGY">    72</i>
   <i type="int" name="NGZ">   250</i>
   <i type="int" name="NGXF">   144</i>
   <i type="int" name="NGYF">   144</i>
   <i type="int" name="NGZF">   500</i>
   <i type="logical" name="ADDGRID"> F  </i>
  </separator>
  <separator name="ionic" >
   <i type="int" name="NSW">     0</i>
   <i type="int" name="IBRION">    -1</i>
   <i type="int" name="MDALGO">     0</i>
   <i type="int" name="ISIF">     2</i>
   <i name="PSTRESS">      0.00000000</i>
   <i name="EDIFFG">      0.00005000</i>
   <i type="int" name="NFREE">     0</i>
   <i name="POTIM">      0.50000000</i>
   <i name="SMASS">     -3.00000000</i>
   <i name="SCALEE">      1.00000000</i>
  </separator>
  <separator name="ionic md" >
   <i name="TEBEG">      0.00010000</i>
   <i name="TEEND">      0.00010000</i>
   <i type="int" name="NBLOCK">     1</i>
   <i type="int" name="KBLOCK">     1</i>
   <i type="int" name="NPACO">   256</i>
   <i name="APACO">     16.00000000</i>
  </separator>
  <separator name="symmetry" >
   <i type="int" name="ISYM">     2</i>
   <i name="SYMPREC">      0.00001000</i>
  </separator>
  <separator name="dos" >
   <i type="int" name="LORBIT">     0</i>
   <v name="RWIGS">     -1.00000000     -1.00000000     -1.00000000</v>
   <i type="int" name="NEDOS">   301</i>
   <i name="EMIN">     10.00000000</i>
   <i name="EMAX">    -10.00000000</i>
   <i name="EFERMI">      0.00000000</i>
  </separator>
  <separator name="writing" >
   <i type="int" name="NWRITE">     2</i>
   <i type="logical" name="LWAVE"> F  </i>
   <i type="logical" name="LDOWNSAMPLE"> F  </i>
   <i type="logical" name="LCHARG"> T  </i>
   <i type="logical" name="LPARD"> F  </i>
   <i type="logical" name="LVTOT"> F  </i>
   <i type="logical" name="LVHAR"> T  </i>
   <i type="logical" name="LELF"> F  </i>
   <i type="logical" name="LOPTICS"> F  </i>
   <v name="STM">      0.00000000      0.00000000      0.00000000      0.00000000      0.00000000      0.00000000      0.00000000</v>
  </separator>
  <separator name="performance" >
   <i type="int" name="NPAR">     3</i>
   <i type="int" name="NSIM">     4</i>
   <i type="int" name="NBLK">    -1</i>
   <i type="logical" name="LPLANE"> T  </i>
   <i type="logical" name="LSCALAPACK"> T  </i>
   <i type="logical" name="LSCAAWARE"> F  </i>
   <i type="logical" name="LSCALU"> F  </i>
   <i type="logical" name="LASYNC"> F  </i>
   <i type="logical" name="LORBITALREAL"> F  </i>
  </separator>
  <separator name="miscellaneous" >
   <i type="int" name="IDIOT">     3</i>
   <i type="int" name="ISPECIAL">     0</i>
   <i type="logical" name="LMUSIC"> F  </i>
   <v name="POMASS">     24.30500000     16.00000000      1.00000000</v>
   <v name="DARWINR">      0.00000000      0.00000000      0.00000000</v>
   <v name="DARWINV">      1.00000000      1.00000000      1.00000000</v>
   <i type="logical" name="LCORR"> T  </i>
  </separator>
  <i type="logical" name="GGA_COMPAT"> T  </i>
  <i type="logical" name="LBERRY"> F  </i>
  <i type="int" name="ICORELEVEL">     0</i>
  <i type="logical" name="LDAU"> F  </i>
  <i type="int" name="I_CONSTRAINED_M">     0</i>
  <separator name="electronic exchange-correlation" >
   <i type="string" name="GGA">BO</i>
   <i type="int" name="VOSKOWN">     0</i>
   <i type="logical" name="LHFCALC"> F  </i>
   <i type="string" name="PRECFOCK"></i>
   <i type="logical" name="LSYMGRAD"> F  </i>
   <i type="logical" name="LHFONE"> F  </i>
   <i type="logical" name="LRHFCALC"> F  </i>
   <i type="logical" name="LTHOMAS"> F  </i>
   <i type="logical" name="LMODELHF"> F  </i>
   <i name="ENCUT4O">     -1.00000000</i>
   <i type="int" name="EXXOEP">     0</i>
   <i type="int" name="FOURORBIT">     0</i>
   <i name="AEXX">      0.00000000</i>
   <i name="HFALPHA">      0.00000000</i>
   <i name="MCALPHA">      0.00000000</i>
   <i name="ALDAX">      1.00000000</i>
   <i name="AGGAX">      1.00000000</i>
   <i name="ALDAC">      1.00000000</i>
   <i name="AGGAC">      0.00000000</i>
   <i type="int" name="NKREDX">     1</i>
   <i type="int" name="NKREDY">     1</i>
   <i type="int" name="NKREDZ">     1</i>
   <i type="logical" name="SHIFTRED"> F  </i>
   <i type="logical" name="ODDONLY"> F  </i>
   <i type="logical" name="EVENONLY"> F  </i>
   <i type="int" name="LMAXFOCK">     0</i>
   <i type="int" name="NMAXFOCKAE">     0</i>
   <i type="logical" name="LFOCKAEDFT"> F  </i>
   <i name="HFSCREEN">      0.00000000</i>
   <i name="HFSCREENC">      0.00000000</i>
   <i type="int" name="NBANDSGWLOW">     0</i>
  </separator>
  <separator name="vdW DFT" >
   <i type="logical" name="LUSE_VDW"> T  </i>
   <i name="Zab_VDW">     -0.84910000</i>
   <i name="PARAM1">      0.18333333</i>
   <i name="PARAM2">      0.22000000</i>
   <i name="PARAM3">      0.00000000</i>
  </separator>
  <separator name="model GW" >
   <i type="int" name="MODEL_GW">     0</i>
   <i name="MODEL_EPS0">     24.57100561</i>
   <i name="MODEL_ALPHA">      1.00000000</i>
  </separator>
  <separator name="linear response parameters" >
   <i type="logical" name="LEPSILON"> F  </i>
   <i type="logical" name="LRPA"> F  </i>
   <i type="logical" name="LNABLA"> F  </i>
   <i type="logical" name="LVEL"> F  </i>
   <i type="int" name="KINTER">     0</i>
   <i name="CSHIFT">      0.10000000</i>
   <i name="OMEGAMAX">     -1.00000000</i>
   <i name="DEG_THRESHOLD">      0.00200000</i>
   <i name="RTIME">     -0.10000000</i>
   <i name="WPLASMAI">      0.00000000</i>
   <v name="DFIELD">      0.00000000      0.00000000      0.00000000</v>
   <v name="WPLASMA">      0.00000000      0.00000000      0.00000000      0.00000000      0.00000000      0.00000000      0.00000000      0.00000000      0.00000000</v>
  </separator>
  <separator name="orbital magnetization" >
   <i type="logical" name="NUCIND"> F  </i>
   <v name="MAGPOS">      0.00000000      0.00000000      0.00000000</v>
   <i type="logical" name="LNICSALL"> T  </i>
   <i type="logical" name="ORBITALMAG"> F  </i>
   <i type="logical" name="LMAGBLOCH"> F  </i>
   <i type="logical" name="LCHIMAG"> F  </i>
   <i type="logical" name="LGAUGE"> T  </i>
   <i type="int" name="MAGATOM">     0</i>
   <v name="MAGDIPOL">      0.00000000      0.00000000      0.00000000</v>
   <v name="AVECCONST">      0.00000000      0.00000000      0.00000000</v>
  </separator>
  <separator name="response functions" >
   <i type="logical" name="LADDER"> F  </i>
   <i type="logical" name="LRPAFORCE"> F  </i>
   <i type="logical" name="LFXC"> F  </i>
   <i type="logical" name="LHARTREE"> T  </i>
   <i type="int" name="IBSE">     0</i>
   <v type="int" name="KPOINT">    -1     0     0     0</v>
   <i type="logical" name="LTCTE"> F  </i>
   <i type="logical" name="LTETE"> F  </i>
   <i type="logical" name="LTRIPLET"> F  </i>
   <i type="logical" name="LFXCEPS"> F  </i>
   <i type="logical" name="LFXHEG"> F  </i>
   <i type="int" name="NATURALO">     2</i>
   <i type="logical" name="L2ORDER"> F  </i>
   <i type="logical" name="LMP2LT"> F  </i>
   <i type="logical" name="LUSEW"> F  </i>
   <i name="ENCUTGW">     -2.00000000</i>
   <i name="ENCUTGWSOFT">     -2.00000000</i>
   <i name="ENCUTLF">     -1.00000000</i>
   <i type="int" name="LMAXMP2">    -1</i>
   <i name="SCISSOR">      0.00000000</i>
   <i type="int" name="NOMEGA">     0</i>
   <i type="int" name="NOMEGAR">     0</i>
   <i type="int" name="NBANDSGW">    -1</i>
   <i type="int" name="NBANDSO">    -1</i>
   <i type="int" name="NBANDSV">    -1</i>
   <i type="int" name="NELM">   300</i>
   <i type="int" name="NELMHF">     1</i>
   <i type="int" name="DIM">     3</i>
   <i type="int" name="ANTIRES">     0</i>
   <i name="OMEGAMAX">    -30.00000000</i>
   <i name="OMEGAMIN">    -30.00000000</i>
   <i name="OMEGATL">   -200.00000000</i>
   <i type="int" name="OMEGAGRID">   140</i>
   <i name="CSHIFT">     -0.10000000</i>
   <i type="logical" name="SELFENERGY"> F  </i>
   <i type="logical" name="LSPECTRAL"> F  </i>
   <i type="logical" name="LSPECTRALGW"> F  </i>
   <i type="logical" name="LSINGLES"> F  </i>
   <i type="logical" name="LFERMIGW"> F  </i>
   <i type="logical" name="ODDONLYGW"> F  </i>
   <i type="logical" name="EVENONLYGW"> F  </i>
   <i type="int" name="NKREDLFX">     1</i>
   <i type="int" name="NKREDLFY">     1</i>
   <i type="int" name="NKREDLFZ">     1</i>
   <i type="int" name="MAXMEM">  2800</i>
   <i type="int" name="TELESCOPE">     0</i>
   <i type="int" name="TAUPAR">     1</i>
   <i type="int" name="OMEGAPAR">    -1</i>
   <i name="LAMBDA">      1.00000000</i>
  </separator>
  <separator name="External order field" >
   <i name="OFIELD_KAPPA">      0.00000000</i>
   <v name="OFIELD_K">      0.00000000      0.00000000      0.00000000</v>
   <i name="OFIELD_Q6_NEAR">      0.00000000</i>
   <i name="OFIELD_Q6_FAR">      0.00000000</i>
   <i name="OFIELD_A">      0.00000000</i>
  </separator>
 </parameters>
 <atominfo>
  <atoms>      63 </atoms>
  <types>       3 </types>
  <array name="atoms" >
   <dimension dim="1">ion</dimension>
   <field type="string">element</field>
   <field type="int">atomtype</field>
   <set>
    <rc><c>Mg</c><c>   1</c></rc>
    <rc><c>Mg</c><c>   1</c></rc>
    <rc><c>Mg</c><c>   1</c></rc>
    <rc><c>Mg</c><c>   1</c></rc>
    <rc><c>Mg</c><c>   1</c></rc>
    <rc><c>Mg</c><c>   1</c></rc>
    <rc><c>Mg</c><c>   1</c></rc>
    <rc><c>Mg</c><c>   1</c></rc>
    <rc><c>Mg</c><c>   1</c></rc>
    <rc><c>Mg</c><c>   1</c></rc>
    <rc><c>Mg</c><c>   1</c></rc>
    <rc><c>Mg</c><c>   1</c></rc>
    <rc><c>Mg</c><c>   1</c></rc>
    <rc><c>Mg</c><c>   1</c></rc>
    <rc><c>Mg</c><c>   1</c></rc>
    <rc><c>Mg</c><c>   1</c></rc>
    <rc><c>Mg</c><c>   1</c></rc>
    <rc><c>Mg</c><c>   1</c></rc>
    <rc><c>Mg</c><c>   1</c></rc>
    <rc><c>Mg</c><c>   1</c></rc>
    <rc><c>Mg</c><c>   1</c></rc>
    <rc><c>Mg</c><c>   1</c></rc>
    <rc><c>Mg</c><c>   1</c></rc>
    <rc><c>Mg</c><c>   1</c></rc>
    <rc><c>Mg</c><c>   1</c></rc>
    <rc><c>Mg</c><c>   1</c></rc>
    <rc><c>Mg</c><c>   1</c></rc>
    <rc><c>Mg</c><c>   1</c></rc>
    <rc><c>Mg</c><c>   1</c></rc>
    <rc><c>Mg</c><c>   1</c></rc>
    <rc><c>Mg</c><c>   1</c></rc>
    <rc><c>Mg</c><c>   1</c></rc>
    <rc><c>Mg</c><c>   1</c></rc>
    <rc><c>Mg</c><c>   1</c></rc>
    <rc><c>Mg</c><c>   1</c></rc>
    <rc><c>Mg</c><c>   1</c></rc>
    <rc><c>Mg</c><c>   1</c></rc>
    <rc><c>Mg</c><c>   1</c></rc>
    <rc><c>Mg</c><c>   1</c></rc>
    <rc><c>Mg</c><c>   1</c></rc>
    <rc><c>Mg</c><c>   1</c></rc>
    <rc><c>Mg</c><c>   1</c></rc>
    <rc><c>Mg</c><c>   1</c></rc>
    <rc><c>Mg</c><c>   1</c></rc>
    <rc><c>Mg</c><c>   1</c></rc>
    <rc><c>O </c><c>   2</c></rc>
    <rc><c>O </c><c>   2</c></rc>
    <rc><c>O </c><c>   2</c></rc>
    <rc><c>O </c><c>   2</c></rc>
    <rc><c>O </c><c>   2</c></rc>
    <rc><c>O </c><c>   2</c></rc>
    <rc><c>H </c><c>   3</c></rc>
    <rc><c>H </c><c>   3</c></rc>
    <rc><c>H </c><c>   3</c></rc>
    <rc><c>H </c><c>   3</c></rc>
    <rc><c>H </c><c>   3</c></rc>
    <rc><c>H </c><c>   3</c></rc>
    <rc><c>H </c><c>   3</c></rc>
    <rc><c>H </c><c>   3</c></rc>
    <rc><c>H </c><c>   3</c></rc>
    <rc><c>H </c><c>   3</c></rc>
    <rc><c>H </c><c>   3</c></rc>
    <rc><c>H </c><c>   3</c></rc>
   </set>
  </array>
  <array name="atomtypes" >
   <dimension dim="1">type</dimension>
   <field type="int">atomspertype</field>
   <field type="string">element</field>
   <field>mass</field>
   <field>valence</field>
   <field type="string">pseudopotential</field>
   <set>
    <rc><c>  45</c><c>Mg</c><c>     24.30500000</c><c>      2.00000000</c><c>  PAW_PBE Mg 13Apr2007                  </c></rc>
    <rc><c>   6</c><c>O </c><c>     16.00000000</c><c>      6.00000000</c><c>  PAW_PBE O 08Apr2002                   </c></rc>
    <rc><c>  12</c><c>H </c><c>      1.00000000</c><c>      1.00000000</c><c>  PAW_PBE H 15Jun2001                   </c></rc>
   </set>
  </array>
 </atominfo>
 <structure name="initialpos" >
  <crystal>
   <varray name="basis" >
    <v>       9.55575275       0.00000000       0.00000000 </v>
    <v>      -4.77787638       8.27552464       0.00000000 </v>
    <v>       0.00000000       0.00000000      32.62509537 </v>
   </varray>
   <i name="volume">   2579.95558872 </i>
   <varray name="rec_basis" >
    <v>       0.10464900       0.06041913       0.00000000 </v>
    <v>       0.00000000       0.12083826       0.00000000 </v>
    <v>       0.00000000       0.00000000       0.03065125 </v>
   </varray>
  </crystal>
  <varray name="positions" >
   <v>       0.00000000       0.00000000       0.00000000 </v>
   <v>       0.99764876       0.99829861       0.15812519 </v>
   <v>       0.99971380       0.00290886       0.33091279 </v>
   <v>       0.00000001       0.33333336       0.00000000 </v>
   <v>       0.99899076       0.33261417       0.15749120 </v>
   <v>       0.98827860       0.33027462       0.31041080 </v>
   <v>       0.00000002       0.66666672       0.00000000 </v>
   <v>       0.99760260       0.66487610       0.15773479 </v>
   <v>       0.99875201       0.67232739       0.31393229 </v>
   <v>       0.33333334       0.00000000       0.00000000 </v>
   <v>       0.33192496       0.99837178       0.15720926 </v>
   <v>       0.32409783       0.99753723       0.30872357 </v>
   <v>       0.33333335       0.33333336       0.00000000 </v>
   <v>       0.33127952       0.33103253       0.15694935 </v>
   <v>       0.31866712       0.32401571       0.31174748 </v>
   <v>       0.33333336       0.66666672       0.00000000 </v>
   <v>       0.33103594       0.66588171       0.15795044 </v>
   <v>       0.31419025       0.66919983       0.33048248 </v>
   <v>       0.66666668       0.00000000       0.00000000 </v>
   <v>       0.66544826       0.99735263       0.15765655 </v>
   <v>       0.66340035       0.00034842       0.31384342 </v>
   <v>       0.66666668       0.33333336       0.00000000 </v>
   <v>       0.66563522       0.33378794       0.15879373 </v>
   <v>       0.65775387       0.31584677       0.32590058 </v>
   <v>       0.66666670       0.66666672       0.00000000 </v>
   <v>       0.66799639       0.66619340       0.15889050 </v>
   <v>       0.65827270       0.66929576       0.32881282 </v>
   <v>       0.11111113       0.22222222       0.07982145 </v>
   <v>       0.10583686       0.21744197       0.23573110 </v>
   <v>       0.11111114       0.55555561       0.07982145 </v>
   <v>       0.11279400       0.55677355       0.23658367 </v>
   <v>       0.11111116       0.88888894       0.07982145 </v>
   <v>       0.10491255       0.88566969       0.23438945 </v>
   <v>       0.44444450       0.22222222       0.07982145 </v>
   <v>       0.44382072       0.22384403       0.23571221 </v>
   <v>       0.44444450       0.55555561       0.07982145 </v>
   <v>       0.44252082       0.55436737       0.23450897 </v>
   <v>       0.44444451       0.88888894       0.07982145 </v>
   <v>       0.44175811       0.88168377       0.23617868 </v>
   <v>       0.77777779       0.22222222       0.07982145 </v>
   <v>       0.77118327       0.21774407       0.23482956 </v>
   <v>       0.77777781       0.55555561       0.07982145 </v>
   <v>       0.76810412       0.54828516       0.24159029 </v>
   <v>       0.77777784       0.88888894       0.07982145 </v>
   <v>       0.77674979       0.88255266       0.24062267 </v>
   <v>       0.99521463       0.01004538       0.39633634 </v>
   <v>       0.27966272       0.96502458       0.41271323 </v>
   <v>       0.90415999       0.24272811       0.41316636 </v>
   <v>       0.63292088       0.34400658       0.38800297 </v>
   <v>       0.64539696       0.61250794       0.38766187 </v>
   <v>       0.32180359       0.68630462       0.39566499 </v>
   <v>       0.97331874       0.09306714       0.40825279 </v>
   <v>       0.08493931       0.01102045       0.41137943 </v>
   <v>       0.37996252       0.07014328       0.41154945 </v>
   <v>       0.24517585       0.94371698       0.38342159 </v>
   <v>       0.99925330       0.35079701       0.41041844 </v>
   <v>       0.85974960       0.21793714       0.38472206 </v>
   <v>       0.64137513       0.46106099       0.39193485 </v>
   <v>       0.71157938       0.33765383       0.40594567 </v>
   <v>       0.72909891       0.69399582       0.40510914 </v>
   <v>       0.41956793       0.54293780       0.33048466 </v>
   <v>       0.31928396       0.78066850       0.40745009 </v>
   <v>       0.40955520       0.67759629       0.40871504 </v>
  </varray>
  <varray name="selective"  type="logical" >
   <v type="logical" >  F  F  F </v>
   <v type="logical" >  T  T  T </v>
   <v type="logical" >  T  T  T </v>
   <v type="logical" >  F  F  F </v>
   <v type="logical" >  T  T  T </v>
   <v type="logical" >  T  T  T </v>
   <v type="logical" >  F  F  F </v>
   <v type="logical" >  T  T  T </v>
   <v type="logical" >  T  T  T </v>
   <v type="logical" >  F  F  F </v>
   <v type="logical" >  T  T  T </v>
   <v type="logical" >  T  T  T </v>
   <v type="logical" >  F  F  F </v>
   <v type="logical" >  T  T  T </v>
   <v type="logical" >  T  T  T </v>
   <v type="logical" >  F  F  F </v>
   <v type="logical" >  T  T  T </v>
   <v type="logical" >  T  T  T </v>
   <v type="logical" >  F  F  F </v>
   <v type="logical" >  T  T  T </v>
   <v type="logical" >  T  T  T </v>
   <v type="logical" >  F  F  F </v>
   <v type="logical" >  T  T  T </v>
   <v type="logical" >  T  T  T </v>
   <v type="logical" >  F  F  F </v>
   <v type="logical" >  T  T  T </v>
   <v type="logical" >  T  T  T </v>
   <v type="logical" >  F  F  F </v>
   <v type="logical" >  T  T  T </v>
   <v type="logical" >  F  F  F </v>
   <v type="logical" >  T  T  T </v>
   <v type="logical" >  F  F  F </v>
   <v type="logical" >  T  T  T </v>
   <v type="logical" >  F  F  F </v>
   <v type="logical" >  T  T  T </v>
   <v type="logical" >  F  F  F </v>
   <v type="logical" >  T  T  T </v>
   <v type="logical" >  F  F  F </v>
   <v type="logical" >  T  T  T </v>
   <v type="logical" >  F  F  F </v>
   <v type="logical" >  T  T  T </v>
   <v type="logical" >  F  F  F </v>
   <v type="logical" >  T  T  T </v>
   <v type="logical" >  F  F  F </v>
   <v type="logical" >  T  T  T </v>
   <v type="logical" >  T  T  T </v>
   <v type="logical" >  T  T  T </v>
   <v type="logical" >  T  T  T </v>
   <v type="logical" >  T  T  T </v>
   <v type="logical" >  T  T  T </v>
   <v type="logical" >  T  T  T </v>
   <v type="logical" >  T  T  T </v>
   <v type="logical" >  T  T  T </v>
   <v type="logical" >  T  T  T </v>
   <v type="logical" >  T  T  T </v>
   <v type="logical" >  T  T  T </v>
   <v type="logical" >  T  T  T </v>
   <v type="logical" >  T  T  T </v>
   <v type="logical" >  T  T  T </v>
   <v type="logical" >  T  T  T </v>
   <v type="logical" >  T  T  T </v>
   <v type="logical" >  T  T  T </v>
   <v type="logical" >  T  T  T </v>
  </varray>
  <nose>
   <v>      -3.00000000       0.00000000       0.00010000       0.00010000 </v>
  </nose>
 </structure>
 <calculation>
  <scstep>
   <time name="diag">    0.58    0.58</time>
   <time name="diis">    1.05    1.05</time>
   <time name="orth">    0.07    0.07</time>
   <time name="total">    8.91    9.12</time>
   <dipole>
    <v name="dipole">      0.00000000       0.00000000      -0.00038721 </v>
    <i name="Tr[quadrupol]">  -1880.31857840 </i>
    <i name="Echarged">      0.00000000 </i>
    <i name="Edipol_quadrupol">      0.00000000 </i>
    <i name="Eion">      0.00000000 </i>
   </dipole>
   <energy>
    <i name="alphaZ">     63.16498729 </i>
    <i name="ewald">  12969.93283901 </i>
    <i name="hartreedc"> -16197.30783385 </i>
    <i name="XCdc">  -2051.15114997 </i>
    <i name="pawpsdc">   5135.15659847 </i>
    <i name="pawaedc">  -2719.01140655 </i>
    <i name="eentropy">      0.00000000 </i>
    <i name="bandstr">    213.02647284 </i>
    <i name="atom">   3827.98814510 </i>
    <i name="e_fr_energy">   1241.79865234 </i>
    <i name="e_wo_entrp">   1241.79865234 </i>
    <i name="e_0_energy">   1241.79865234 </i>
   </energy>
  </scstep>
  <scstep>
   <time name="diag">    0.66    0.68</time>
   <time name="diis">    1.29    1.29</time>
   <time name="orth">    0.07    0.07</time>
   <time name="total">    2.02    2.05</time>
   <dipole>
    <v name="dipole">      0.00000000       0.00000000      -0.00038721 </v>
    <i name="Tr[quadrupol]">  -1880.31857840 </i>
    <i name="Echarged">      0.00000000 </i>
    <i name="Edipol_quadrupol">      0.00000000 </i>
    <i name="Eion">      0.00000000 </i>
   </dipole>
   <energy>
    <i name="e_fr_energy">    544.46358258 </i>
    <i name="e_wo_entrp">    544.46358258 </i>
    <i name="e_0_energy">    544.46358258 </i>
   </energy>
  </scstep>
  <scstep>
   <time name="diag">    0.66    0.69</time>
   <time name="diis">    1.53    1.53</time>
   <time name="orth">    0.08    0.08</time>
   <time name="total">    2.27    2.30</time>
   <dipole>
    <v name="dipole">      0.00000000       0.00000000      -0.00038721 </v>
    <i name="Tr[quadrupol]">  -1880.31857840 </i>
    <i name="Echarged">      0.00000000 </i>
    <i name="Edipol_quadrupol">      0.00000000 </i>
    <i name="Eion">      0.00000000 </i>
   </dipole>
   <energy>
    <i name="e_fr_energy">    309.84032100 </i>
    <i name="e_wo_entrp">    309.84032100 </i>
    <i name="e_0_energy">    309.84032100 </i>
   </energy>
  </scstep>
  <scstep>
   <time name="diag">    0.66    0.69</time>
   <time name="diis">    1.32    1.32</time>
   <time name="orth">    0.09    0.09</time>
   <time name="total">    2.07    2.10</time>
   <dipole>
    <v name="dipole">      0.00000000       0.00000000      -0.00038721 </v>
    <i name="Tr[quadrupol]">  -1880.31857840 </i>
    <i name="Echarged">      0.00000000 </i>
    <i name="Edipol_quadrupol">      0.00000000 </i>
    <i name="Eion">      0.00000000 </i>
   </dipole>
   <energy>
    <i name="e_fr_energy">    138.13242500 </i>
    <i name="e_wo_entrp">    138.13242500 </i>
    <i name="e_0_energy">    138.13242500 </i>
   </energy>
  </scstep>
  <scstep>
   <time name="diag">    0.58    0.61</time>
   <time name="diis">    1.05    1.05</time>
   <time name="orth">    0.07    0.07</time>
   <time name="total">    1.71    1.74</time>
   <dipole>
    <v name="dipole">      0.00000000       0.00000000      -0.00038721 </v>
    <i name="Tr[quadrupol]">  -1880.31857840 </i>
    <i name="Echarged">      0.00000000 </i>
    <i name="Edipol_quadrupol">      0.00000000 </i>
    <i name="Eion">      0.00000000 </i>
   </dipole>
   <energy>
    <i name="e_fr_energy">     21.85072898 </i>
    <i name="e_wo_entrp">     21.85072898 </i>
    <i name="e_0_energy">     21.85072898 </i>
   </energy>
  </scstep>
  <scstep>
   <time name="diag">    0.56    0.58</time>
   <time name="diis">    1.10    1.10</time>
   <time name="orth">    0.07    0.07</time>
   <time name="total">    1.73    1.76</time>
   <dipole>
    <v name="dipole">      0.00000000       0.00000000      -0.00038721 </v>
    <i name="Tr[quadrupol]">  -1880.31857840 </i>
    <i name="Echarged">      0.00000000 </i>
    <i name="Edipol_quadrupol">      0.00000000 </i>
    <i name="Eion">      0.00000000 </i>
   </dipole>
   <energy>
    <i name="e_fr_energy">    -42.14094142 </i>
    <i name="e_wo_entrp">    -42.14094142 </i>
    <i name="e_0_energy">    -42.14094142 </i>
   </energy>
  </scstep>
  <scstep>
   <time name="diag">    0.53    0.55</time>
   <time name="diis">    1.05    1.05</time>
   <time name="orth">    0.07    0.07</time>
   <time name="total">    1.65    1.68</time>
   <dipole>
    <v name="dipole">      0.00000000       0.00000000      -0.00038721 </v>
    <i name="Tr[quadrupol]">  -1880.31857840 </i>
    <i name="Echarged">      0.00000000 </i>
    <i name="Edipol_quadrupol">      0.00000000 </i>
    <i name="Eion">      0.00000000 </i>
   </dipole>
   <energy>
    <i name="e_fr_energy">    -70.19775842 </i>
    <i name="e_wo_entrp">    -70.19775842 </i>
    <i name="e_0_energy">    -70.19775842 </i>
   </energy>
  </scstep>
  <scstep>
   <time name="diag">    0.49    0.51</time>
   <time name="diis">    1.06    1.06</time>
   <time name="orth">    0.07    0.07</time>
   <time name="total">    1.62    1.64</time>
   <dipole>
    <v name="dipole">      0.00000000       0.00000000      -0.00038721 </v>
    <i name="Tr[quadrupol]">  -1880.31857840 </i>
    <i name="Echarged">      0.00000000 </i>
    <i name="Edipol_quadrupol">      0.00000000 </i>
    <i name="Eion">      0.00000000 </i>
   </dipole>
   <energy>
    <i name="e_fr_energy">    -78.23045948 </i>
    <i name="e_wo_entrp">    -78.23045948 </i>
    <i name="e_0_energy">    -78.23045948 </i>
   </energy>
  </scstep>
  <scstep>
   <time name="diag">    0.49    0.51</time>
   <time name="diis">    2.73    2.73</time>
   <time name="orth">    0.07    0.07</time>
   <time name="total">    3.29    3.32</time>
   <dipole>
    <v name="dipole">      0.00000000       0.00000000      -0.00038721 </v>
    <i name="Tr[quadrupol]">  -1880.31857840 </i>
    <i name="Echarged">      0.00000000 </i>
    <i name="Edipol_quadrupol">      0.00000000 </i>
    <i name="Eion">      0.00000000 </i>
   </dipole>
   <energy>
    <i name="e_fr_energy">    -80.55206514 </i>
    <i name="e_wo_entrp">    -80.55206514 </i>
    <i name="e_0_energy">    -80.55206514 </i>
   </energy>
  </scstep>
  <scstep>
   <time name="diag">    0.49    0.51</time>
   <time name="diis">    3.28    3.30</time>
   <time name="orth">    0.07    0.07</time>
   <time name="total">    3.84    3.88</time>
   <dipole>
    <v name="dipole">      0.00000000       0.00000000      -0.00038721 </v>
    <i name="Tr[quadrupol]">  -1880.31857840 </i>
    <i name="Echarged">      0.00000000 </i>
    <i name="Edipol_quadrupol">      0.00000000 </i>
    <i name="Eion">      0.00000000 </i>
   </dipole>
   <energy>
    <i name="e_fr_energy">    -80.82640916 </i>
    <i name="e_wo_entrp">    -80.82640916 </i>
    <i name="e_0_energy">    -80.82640916 </i>
   </energy>
  </scstep>
  <scstep>
   <time name="diag">    0.49    0.51</time>
   <time name="diis">    3.12    3.12</time>
   <time name="orth">    0.07    0.07</time>
   <time name="total">    3.69    3.71</time>
   <dipole>
    <v name="dipole">      0.00000000       0.00000000      -0.00038721 </v>
    <i name="Tr[quadrupol]">  -1880.31857840 </i>
    <i name="Echarged">      0.00000000 </i>
    <i name="Edipol_quadrupol">      0.00000000 </i>
    <i name="Eion">      0.00000000 </i>
   </dipole>
   <energy>
    <i name="e_fr_energy">    -80.82557257 </i>
    <i name="e_wo_entrp">    -80.82557257 </i>
    <i name="e_0_energy">    -80.82557257 </i>
   </energy>
  </scstep>
  <scstep>
   <time name="diag">    0.49    0.51</time>
   <time name="diis">    3.29    3.29</time>
   <time name="orth">    0.07    0.07</time>
   <time name="total">    3.99    4.01</time>
   <dipole>
    <v name="dipole">      0.00000000       0.00000000      -0.00038721 </v>
    <i name="Tr[quadrupol]">  -1880.31857840 </i>
    <i name="Echarged">      0.00000000 </i>
    <i name="Edipol_quadrupol">      0.00000000 </i>
    <i name="Eion">      0.00000000 </i>
   </dipole>
   <energy>
    <i name="e_fr_energy">    -80.82805787 </i>
    <i name="e_wo_entrp">    -80.82805787 </i>
    <i name="e_0_energy">    -80.82805787 </i>
   </energy>
  </scstep>
  <scstep>
   <time name="diag">    0.48    0.48</time>
   <time name="diis">    2.55    2.55</time>
   <time name="orth">    0.07    0.07</time>
   <time name="total">    8.28    8.32</time>
   <dipole>
    <v name="dipole">      0.00000000       0.00000000       0.59032252 </v>
    <i name="Tr[quadrupol]">  -1891.56964363 </i>
    <i name="Echarged">      0.00000000 </i>
    <i name="Edipol_quadrupol">      0.00000000 </i>
    <i name="Eion">      0.00000000 </i>
   </dipole>
   <energy>
    <i name="e_fr_energy">    -70.91361953 </i>
    <i name="e_wo_entrp">    -70.91361953 </i>
    <i name="e_0_energy">    -70.91361953 </i>
   </energy>
  </scstep>
  <scstep>
   <time name="diag">    0.48    0.48</time>
   <time name="diis">    2.91    2.92</time>
   <time name="orth">    0.07    0.07</time>
   <time name="total">    8.63    8.66</time>
   <dipole>
    <v name="dipole">      0.00000000       0.00000000      -2.07783641 </v>
    <i name="Tr[quadrupol]">  -1877.26619359 </i>
    <i name="Echarged">      0.00000000 </i>
    <i name="Edipol_quadrupol">      0.00000000 </i>
    <i name="Eion">      0.00000000 </i>
   </dipole>
   <energy>
    <i name="e_fr_energy">    -97.68123558 </i>
    <i name="e_wo_entrp">    -97.68123558 </i>
    <i name="e_0_energy">    -97.68123558 </i>
   </energy>
  </scstep>
  <scstep>
   <time name="diag">    0.48    0.48</time>
   <time name="diis">    2.66    2.66</time>
   <time name="orth">    0.07    0.07</time>
   <time name="total">    8.72    8.75</time>
   <dipole>
    <v name="dipole">      0.00000000       0.00000000       0.10749554 </v>
    <i name="Tr[quadrupol]">  -1889.32176750 </i>
    <i name="Echarged">      0.00000000 </i>
    <i name="Edipol_quadrupol">      0.00000000 </i>
    <i name="Eion">      0.00000000 </i>
   </dipole>
   <energy>
    <i name="e_fr_energy">    -69.37698750 </i>
    <i name="e_wo_entrp">    -69.37698750 </i>
    <i name="e_0_energy">    -69.37698750 </i>
   </energy>
  </scstep>
  <scstep>
   <time name="diag">    0.48    0.48</time>
   <time name="diis">    2.89    2.90</time>
   <time name="orth">    0.07    0.07</time>
   <time name="total">    8.63    8.65</time>
   <dipole>
    <v name="dipole">      0.00000000       0.00000000       0.14159074 </v>
    <i name="Tr[quadrupol]">  -1894.65262045 </i>
    <i name="Echarged">      0.00000000 </i>
    <i name="Edipol_quadrupol">      0.00000000 </i>
    <i name="Eion">      0.00000000 </i>
   </dipole>
   <energy>
    <i name="e_fr_energy">    -69.39216635 </i>
    <i name="e_wo_entrp">    -69.39216635 </i>
    <i name="e_0_energy">    -69.39216635 </i>
   </energy>
  </scstep>
  <scstep>
   <time name="diag">    0.48    0.48</time>
   <time name="diis">    2.46    2.46</time>
   <time name="orth">    0.07    0.07</time>
   <time name="total">    8.20    8.24</time>
   <dipole>
    <v name="dipole">      0.00000000       0.00000000      -0.21436691 </v>
    <i name="Tr[quadrupol]">  -1893.17084447 </i>
    <i name="Echarged">      0.00000000 </i>
    <i name="Edipol_quadrupol">      0.00000000 </i>
    <i name="Eion">      0.00000000 </i>
   </dipole>
   <energy>
    <i name="e_fr_energy">    -69.04294181 </i>
    <i name="e_wo_entrp">    -69.04294181 </i>
    <i name="e_0_energy">    -69.04294181 </i>
   </energy>
  </scstep>
  <scstep>
   <time name="diag">    0.47    0.48</time>
   <time name="diis">    2.96    2.96</time>
   <time name="orth">    0.07    0.07</time>
   <time name="total">    8.87    8.90</time>
   <dipole>
    <v name="dipole">      0.00000000       0.00000000      -0.27471292 </v>
    <i name="Tr[quadrupol]">  -1894.04019414 </i>
    <i name="Echarged">      0.00000000 </i>
    <i name="Edipol_quadrupol">      0.00000000 </i>
    <i name="Eion">      0.00000000 </i>
   </dipole>
   <energy>
    <i name="e_fr_energy">    -69.02045108 </i>
    <i name="e_wo_entrp">    -69.02045108 </i>
    <i name="e_0_energy">    -69.02045108 </i>
   </energy>
  </scstep>
  <scstep>
   <time name="diag">    0.47    0.47</time>
   <time name="diis">    2.50    2.50</time>
   <time name="orth">    0.07    0.07</time>
   <time name="total">    8.24    8.27</time>
   <dipole>
    <v name="dipole">      0.00000000       0.00000000      -0.30107311 </v>
    <i name="Tr[quadrupol]">  -1895.10448691 </i>
    <i name="Echarged">      0.00000000 </i>
    <i name="Edipol_quadrupol">      0.00000000 </i>
    <i name="Eion">      0.00000000 </i>
   </dipole>
   <energy>
    <i name="e_fr_energy">    -69.01805245 </i>
    <i name="e_wo_entrp">    -69.01805245 </i>
    <i name="e_0_energy">    -69.01805245 </i>
   </energy>
  </scstep>
  <scstep>
   <time name="diag">    0.48    0.48</time>
   <time name="diis">    2.70    2.70</time>
   <time name="orth">    0.07    0.07</time>
   <time name="total">    8.44    8.47</time>
   <dipole>
    <v name="dipole">      0.00000000       0.00000000      -0.32572440 </v>
    <i name="Tr[quadrupol]">  -1895.62152279 </i>
    <i name="Echarged">      0.00000000 </i>
    <i name="Edipol_quadrupol">      0.00000000 </i>
    <i name="Eion">      0.00000000 </i>
   </dipole>
   <energy>
    <i name="e_fr_energy">    -69.01763296 </i>
    <i name="e_wo_entrp">    -69.01763296 </i>
    <i name="e_0_energy">    -69.01763296 </i>
   </energy>
  </scstep>
  <scstep>
   <time name="diag">    0.63    0.63</time>
   <time name="diis">    2.68    2.68</time>
   <time name="orth">    0.07    0.07</time>
   <time name="total">    8.59    8.62</time>
   <dipole>
    <v name="dipole">      0.00000000       0.00000000      -0.32911329 </v>
    <i name="Tr[quadrupol]">  -1896.24955150 </i>
    <i name="Echarged">      0.00000000 </i>
    <i name="Edipol_quadrupol">      0.00000000 </i>
    <i name="Eion">      0.00000000 </i>
   </dipole>
   <energy>
    <i name="e_fr_energy">    -69.01208443 </i>
    <i name="e_wo_entrp">    -69.01208443 </i>
    <i name="e_0_energy">    -69.01208443 </i>
   </energy>
  </scstep>
  <scstep>
   <time name="diag">    0.47    0.47</time>
   <time name="diis">    2.69    2.69</time>
   <time name="orth">    0.07    0.07</time>
   <time name="total">    8.43    8.46</time>
   <dipole>
    <v name="dipole">      0.00000000       0.00000000      -0.32591089 </v>
    <i name="Tr[quadrupol]">  -1896.43217538 </i>
    <i name="Echarged">      0.00000000 </i>
    <i name="Edipol_quadrupol">      0.00000000 </i>
    <i name="Eion">      0.00000000 </i>
   </dipole>
   <energy>
    <i name="e_fr_energy">    -69.00646434 </i>
    <i name="e_wo_entrp">    -69.00646434 </i>
    <i name="e_0_energy">    -69.00646434 </i>
   </energy>
  </scstep>
  <scstep>
   <time name="diag">    0.47    0.47</time>
   <time name="diis">    2.21    2.21</time>
   <time name="orth">    0.07    0.07</time>
   <time name="total">    7.95    7.98</time>
   <dipole>
    <v name="dipole">      0.00000000       0.00000000      -0.32216477 </v>
    <i name="Tr[quadrupol]">  -1896.66126920 </i>
    <i name="Echarged">      0.00000000 </i>
    <i name="Edipol_quadrupol">      0.00000000 </i>
    <i name="Eion">      0.00000000 </i>
   </dipole>
   <energy>
    <i name="e_fr_energy">    -69.00375144 </i>
    <i name="e_wo_entrp">    -69.00375144 </i>
    <i name="e_0_energy">    -69.00375144 </i>
   </energy>
  </scstep>
  <scstep>
   <time name="diag">    0.47    0.47</time>
   <time name="diis">    2.07    2.07</time>
   <time name="orth">    0.07    0.07</time>
   <time name="total">    7.81    7.84</time>
   <dipole>
    <v name="dipole">      0.00000000       0.00000000      -0.31331110 </v>
    <i name="Tr[quadrupol]">  -1896.86286145 </i>
    <i name="Echarged">      0.00000000 </i>
    <i name="Edipol_quadrupol">      0.00000000 </i>
    <i name="Eion">      0.00000000 </i>
   </dipole>
   <energy>
    <i name="e_fr_energy">    -69.00562127 </i>
    <i name="e_wo_entrp">    -69.00562127 </i>
    <i name="e_0_energy">    -69.00562127 </i>
   </energy>
  </scstep>
  <scstep>
   <time name="diag">    0.48    0.48</time>
   <time name="diis">    1.98    1.98</time>
   <time name="orth">    0.07    0.07</time>
   <time name="total">    7.74    7.76</time>
   <dipole>
    <v name="dipole">      0.00000000       0.00000000      -0.30813149 </v>
    <i name="Tr[quadrupol]">  -1896.94002606 </i>
    <i name="Echarged">      0.00000000 </i>
    <i name="Edipol_quadrupol">      0.00000000 </i>
    <i name="Eion">      0.00000000 </i>
   </dipole>
   <energy>
    <i name="e_fr_energy">    -69.00614650 </i>
    <i name="e_wo_entrp">    -69.00614650 </i>
    <i name="e_0_energy">    -69.00614650 </i>
   </energy>
  </scstep>
  <scstep>
   <time name="diag">    0.47    0.47</time>
   <time name="diis">    1.99    1.99</time>
   <time name="orth">    0.07    0.07</time>
   <time name="total">    7.97    7.99</time>
   <dipole>
    <v name="dipole">      0.00000000       0.00000000      -0.30299025 </v>
    <i name="Tr[quadrupol]">  -1897.00001853 </i>
    <i name="Echarged">      0.00000000 </i>
    <i name="Edipol_quadrupol">      0.00000000 </i>
    <i name="Eion">      0.00000000 </i>
   </dipole>
   <energy>
    <i name="e_fr_energy">    -69.00600653 </i>
    <i name="e_wo_entrp">    -69.00600653 </i>
    <i name="e_0_energy">    -69.00600653 </i>
   </energy>
  </scstep>
  <scstep>
   <time name="diag">    0.50    0.50</time>
   <time name="diis">    1.93    1.93</time>
   <time name="orth">    0.07    0.07</time>
   <time name="total">    7.70    7.73</time>
   <dipole>
    <v name="dipole">      0.00000000       0.00000000      -0.30175684 </v>
    <i name="Tr[quadrupol]">  -1896.99914138 </i>
    <i name="Echarged">      0.00000000 </i>
    <i name="Edipol_quadrupol">      0.00000000 </i>
    <i name="Eion">      0.00000000 </i>
   </dipole>
   <energy>
    <i name="e_fr_energy">    -69.00598844 </i>
    <i name="e_wo_entrp">    -69.00598844 </i>
    <i name="e_0_energy">    -69.00598844 </i>
   </energy>
  </scstep>
  <scstep>
   <time name="diag">    0.48    0.48</time>
   <time name="diis">    1.71    1.71</time>
   <time name="orth">    0.07    0.07</time>
   <time name="total">    7.52    7.55</time>
   <dipole>
    <v name="dipole">      0.00000000       0.00000000      -0.30043020 </v>
    <i name="Tr[quadrupol]">  -1896.99552413 </i>
    <i name="Echarged">      0.00000000 </i>
    <i name="Edipol_quadrupol">      0.00000000 </i>
    <i name="Eion">      0.00000000 </i>
   </dipole>
   <energy>
    <i name="e_fr_energy">    -69.00599769 </i>
    <i name="e_wo_entrp">    -69.00599769 </i>
    <i name="e_0_energy">    -69.00599769 </i>
   </energy>
  </scstep>
  <scstep>
   <time name="diag">    0.48    0.48</time>
   <time name="diis">    1.60    1.60</time>
   <time name="orth">    0.07    0.07</time>
   <time name="total">    7.35    7.38</time>
   <dipole>
    <v name="dipole">      0.00000000       0.00000000      -0.30035067 </v>
    <i name="Tr[quadrupol]">  -1896.87275996 </i>
    <i name="Echarged">      0.00000000 </i>
    <i name="Edipol_quadrupol">      0.00000000 </i>
    <i name="Eion">      0.00000000 </i>
   </dipole>
   <energy>
    <i name="e_fr_energy">    -69.00600549 </i>
    <i name="e_wo_entrp">    -69.00600549 </i>
    <i name="e_0_energy">    -69.00600549 </i>
   </energy>
  </scstep>
  <scstep>
   <time name="diag">    0.48    0.48</time>
   <time name="diis">    1.57    1.57</time>
   <time name="orth">    0.07    0.07</time>
   <time name="total">    7.32    7.35</time>
   <dipole>
    <v name="dipole">      0.00000000       0.00000000      -0.30001889 </v>
    <i name="Tr[quadrupol]">  -1897.30085534 </i>
    <i name="Echarged">      0.00000000 </i>
    <i name="Edipol_quadrupol">      0.00000000 </i>
    <i name="Eion">      0.00000000 </i>
   </dipole>
   <energy>
    <i name="e_fr_energy">    -69.00602203 </i>
    <i name="e_wo_entrp">    -69.00602203 </i>
    <i name="e_0_energy">    -69.00602203 </i>
   </energy>
  </scstep>
  <scstep>
   <time name="diag">    0.47    0.47</time>
   <time name="diis">    1.51    1.51</time>
   <time name="orth">    0.07    0.07</time>
   <time name="total">    7.27    7.29</time>
   <dipole>
    <v name="dipole">      0.00000000       0.00000000      -0.30078983 </v>
    <i name="Tr[quadrupol]">  -1897.37568534 </i>
    <i name="Echarged">      0.00000000 </i>
    <i name="Edipol_quadrupol">      0.00000000 </i>
    <i name="Eion">      0.00000000 </i>
   </dipole>
   <energy>
    <i name="e_fr_energy">    -69.00607480 </i>
    <i name="e_wo_entrp">    -69.00607480 </i>
    <i name="e_0_energy">    -69.00607480 </i>
   </energy>
  </scstep>
  <scstep>
   <time name="diag">    0.48    0.48</time>
   <time name="diis">    1.52    1.52</time>
   <time name="orth">    0.07    0.07</time>
   <time name="total">    7.13    7.16</time>
   <dipole>
    <v name="dipole">      0.00000000       0.00000000      -0.30108605 </v>
    <i name="Tr[quadrupol]">  -1897.37694085 </i>
    <i name="Echarged">      0.00000000 </i>
    <i name="Edipol_quadrupol">      0.00000000 </i>
    <i name="Eion">      0.00000000 </i>
   </dipole>
   <energy>
    <i name="alphaZ">     64.11751786 </i>
    <i name="ewald">  12969.93283901 </i>
    <i name="hartreedc"> -16438.17034375 </i>
    <i name="XCdc">  -2034.75150664 </i>
    <i name="pawpsdc">   5960.84630918 </i>
    <i name="pawaedc">  -3547.16914589 </i>
    <i name="eentropy">      0.00000000 </i>
    <i name="bandstr">   -871.79989263 </i>
    <i name="atom">   3827.98814510 </i>
    <i name="e_fr_energy">    -69.00607775 </i>
    <i name="e_wo_entrp">    -69.00607775 </i>
    <i name="e_0_energy">    -69.00607775 </i>
   </energy>
  </scstep>
  <structure>
   <crystal>
    <varray name="basis" >
     <v>       9.55575275       0.00000000       0.00000000 </v>
     <v>      -4.77787638       8.27552464       0.00000000 </v>
     <v>       0.00000000       0.00000000      32.62509537 </v>
    </varray>
    <i name="volume">   2579.95558872 </i>
    <varray name="rec_basis" >
     <v>       0.10464900       0.06041913       0.00000000 </v>
     <v>       0.00000000       0.12083826       0.00000000 </v>
     <v>       0.00000000       0.00000000       0.03065125 </v>
    </varray>
   </crystal>
   <varray name="positions" >
    <v>       0.00000000       0.00000000       0.00000000 </v>
    <v>       0.99764876       0.99829861       0.15812519 </v>
    <v>       0.99971380       0.00290886       0.33091279 </v>
    <v>       0.00000001       0.33333336       0.00000000 </v>
    <v>       0.99899076       0.33261417       0.15749120 </v>
    <v>       0.98827860       0.33027462       0.31041080 </v>
    <v>       0.00000002       0.66666672       0.00000000 </v>
    <v>       0.99760260       0.66487610       0.15773479 </v>
    <v>       0.99875201       0.67232739       0.31393229 </v>
    <v>       0.33333334       0.00000000       0.00000000 </v>
    <v>       0.33192496       0.99837178       0.15720926 </v>
    <v>       0.32409783       0.99753723       0.30872357 </v>
    <v>       0.33333335       0.33333336       0.00000000 </v>
    <v>       0.33127952       0.33103253       0.15694935 </v>
    <v>       0.31866712       0.32401571       0.31174748 </v>
    <v>       0.33333336       0.66666672       0.00000000 </v>
    <v>       0.33103594       0.66588171       0.15795044 </v>
    <v>       0.31419025       0.66919983       0.33048248 </v>
    <v>       0.66666668       0.00000000       0.00000000 </v>
    <v>       0.66544826       0.99735263       0.15765655 </v>
    <v>       0.66340035       0.00034842       0.31384342 </v>
    <v>       0.66666668       0.33333336       0.00000000 </v>
    <v>       0.66563522       0.33378794       0.15879373 </v>
    <v>       0.65775387       0.31584677       0.32590058 </v>
    <v>       0.66666670       0.66666672       0.00000000 </v>
    <v>       0.66799639       0.66619340       0.15889050 </v>
    <v>       0.65827270       0.66929576       0.32881282 </v>
    <v>       0.11111113       0.22222222       0.07982145 </v>
    <v>       0.10583686       0.21744197       0.23573110 </v>
    <v>       0.11111114       0.55555561       0.07982145 </v>
    <v>       0.11279400       0.55677355       0.23658367 </v>
    <v>       0.11111116       0.88888894       0.07982145 </v>
    <v>       0.10491255       0.88566969       0.23438945 </v>
    <v>       0.44444450       0.22222222       0.07982145 </v>
    <v>       0.44382072       0.22384403       0.23571221 </v>
    <v>       0.44444450       0.55555561       0.07982145 </v>
    <v>       0.44252082       0.55436737       0.23450897 </v>
    <v>       0.44444451       0.88888894       0.07982145 </v>
    <v>       0.44175811       0.88168377       0.23617868 </v>
    <v>       0.77777779       0.22222222       0.07982145 </v>
    <v>       0.77118327       0.21774407       0.23482956 </v>
    <v>       0.77777781       0.55555561       0.07982145 </v>
    <v>       0.76810412       0.54828516       0.24159029 </v>
    <v>       0.77777784       0.88888894       0.07982145 </v>
    <v>       0.77674979       0.88255266       0.24062267 </v>
    <v>       0.99521463       0.01004538       0.39633634 </v>
    <v>       0.27966272       0.96502458       0.41271323 </v>
    <v>       0.90415999       0.24272811       0.41316636 </v>
    <v>       0.63292088       0.34400658       0.38800297 </v>
    <v>       0.64539696       0.61250794       0.38766187 </v>
    <v>       0.32180359       0.68630462       0.39566499 </v>
    <v>       0.97331874       0.09306714       0.40825279 </v>
    <v>       0.08493931       0.01102045       0.41137943 </v>
    <v>       0.37996252       0.07014328       0.41154945 </v>
    <v>       0.24517585       0.94371698       0.38342159 </v>
    <v>       0.99925330       0.35079701       0.41041844 </v>
    <v>       0.85974960       0.21793714       0.38472206 </v>
    <v>       0.64137513       0.46106099       0.39193485 </v>
    <v>       0.71157938       0.33765383       0.40594567 </v>
    <v>       0.72909891       0.69399582       0.40510914 </v>
    <v>       0.41956793       0.54293780       0.33048466 </v>
    <v>       0.31928396       0.78066850       0.40745009 </v>
    <v>       0.40955520       0.67759629       0.40871504 </v>
   </varray>
  </structure>
  <varray name="forces" >
   <v>       0.02124490      -0.01032061       0.00639289 </v>
   <v>       0.01493611      -0.01319151       0.00233317 </v>
   <v>       0.00789933      -0.00449799      -0.00149695 </v>
   <v>      -0.04223846      -0.01749654      -0.03281028 </v>
   <v>       0.00355747       0.00142249      -0.00440616 </v>
   <v>      -0.00417502      -0.00749783       0.02010042 </v>
   <v>       0.02237723       0.02754512      -0.02322923 </v>
   <v>      -0.01165437       0.01847382       0.00067825 </v>
   <v>      -0.00134195       0.03039202       0.00401316 </v>
   <v>      -0.01362167      -0.02169975      -0.02197089 </v>
   <v>      -0.01051049      -0.01028446       0.00171562 </v>
   <v>      -0.03138733      -0.00346736       0.00217297 </v>
   <v>       0.00223097       0.00038576      -0.03664170 </v>
   <v>       0.00749237      -0.01437812      -0.01577596 </v>
   <v>      -0.00535320      -0.00901466      -0.01165625 </v>
   <v>      -0.01614088       0.00579022      -0.02672149 </v>
   <v>      -0.01584561       0.01852244      -0.00298099 </v>
   <v>      -0.01882273      -0.00222197      -0.01444904 </v>
   <v>      -0.00503200       0.05000800      -0.04119776 </v>
   <v>      -0.00604657      -0.01351382      -0.00169423 </v>
   <v>       0.00579517       0.01895467       0.02629458 </v>
   <v>       0.04385870      -0.03050054      -0.02363582 </v>
   <v>      -0.01024641       0.01280577       0.00351764 </v>
   <v>       0.00215640      -0.00424242       0.01779678 </v>
   <v>      -0.01255815       0.00069323      -0.03889820 </v>
   <v>       0.01359360       0.00058106      -0.01240142 </v>
   <v>      -0.01646724       0.01640097       0.03384928 </v>
   <v>       0.00092584      -0.03187158       0.01927241 </v>
   <v>      -0.00226326      -0.01627117       0.00498902 </v>
   <v>       0.02159244       0.00965505       0.02862396 </v>
   <v>      -0.00240609       0.01310811       0.00978862 </v>
   <v>      -0.04239288       0.00149306      -0.05441896 </v>
   <v>      -0.02324837      -0.00120998       0.02021631 </v>
   <v>      -0.00161808       0.01727398       0.03934177 </v>
   <v>       0.00192208       0.01371915      -0.00470401 </v>
   <v>       0.01025732       0.01593047       0.00780088 </v>
   <v>       0.00015812      -0.00221140       0.00017781 </v>
   <v>      -0.00123388      -0.04557441       0.03837166 </v>
   <v>      -0.00491536      -0.01840484      -0.00263653 </v>
   <v>      -0.00724292       0.00867978      -0.01917801 </v>
   <v>      -0.01574211       0.01003443      -0.00381083 </v>
   <v>      -0.02947712      -0.00386670       0.07952699 </v>
   <v>      -0.00878781      -0.01568551      -0.01326082 </v>
   <v>       0.03198948      -0.02680481       0.04646769 </v>
   <v>       0.00671206      -0.00117898       0.00276154 </v>
   <v>      -0.00043223      -0.00428369       0.01145258 </v>
   <v>       0.01142811      -0.00518305       0.02131367 </v>
   <v>       0.01203243      -0.00336761       0.03573611 </v>
   <v>      -0.02114326       0.02210977       0.00985358 </v>
   <v>      -0.05851417       0.00746513       0.04210561 </v>
   <v>       0.03935344      -0.00891873      -0.00251506 </v>
   <v>       0.00076388      -0.00148216      -0.00254713 </v>
   <v>       0.00767129       0.00075608      -0.00842111 </v>
   <v>      -0.00187643      -0.00307282      -0.00596683 </v>
   <v>       0.00280906      -0.02743781      -0.00232311 </v>
   <v>       0.01187377      -0.00750116       0.00356105 </v>
   <v>      -0.00549421      -0.00469804      -0.00310442 </v>
   <v>      -0.02681696       0.01794953       0.00109169 </v>
   <v>      -0.01950247       0.02244289       0.00728968 </v>
   <v>       0.07488189       0.02128549      -0.00387968 </v>
   <v>      -0.00318804       0.00716300      -0.05575499 </v>
   <v>       0.04238859      -0.01181817      -0.00213435 </v>
   <v>       0.07583569       0.01212874      -0.05398522 </v>
  </varray>
  <varray name="stress" >
   <v>      -5.17342485       0.38820454       0.50354443 </v>
   <v>       0.38820437      -5.70638256       0.31869928 </v>
   <v>       0.50354429       0.31869921       0.51128034 </v>
  </varray>
  <energy>
   <i name="e_fr_energy">    -69.00607775 </i>
   <i name="e_wo_entrp">    -69.00607775 </i>
   <i name="e_0_energy">      0.00000000 </i>
  </energy>
  <time name="totalsc">  218.87  220.49</time>
  <eigenvalues>
   <array>
    <dimension dim="1">band</dimension>
    <dimension dim="2">kpoint</dimension>
    <dimension dim="3">spin</dimension>
    <field>eigene</field>
    <field>occ</field>
    <set>
     <set comment="spin 1">
      <set comment="kpoint 1">
       <r>  -23.8944    1.0000 </r>
       <r>  -23.6638    1.0000 </r>
       <r>  -23.3827    1.0000 </r>
       <r>  -23.2669    1.0000 </r>
       <r>  -22.6631    1.0000 </r>
       <r>  -20.8019    1.0000 </r>
       <r>  -11.9259    1.0000 </r>
       <r>  -11.7607    1.0000 </r>
       <r>  -11.1363    1.0000 </r>
       <r>  -11.0387    1.0000 </r>
       <r>  -10.8332    1.0000 </r>
       <r>   -8.8169    1.0000 </r>
       <r>   -8.6295    1.0000 </r>
       <r>   -8.3448    1.0000 </r>
       <r>   -7.9585    1.0000 </r>
       <r>   -7.8195    1.0000 </r>
       <r>   -7.7259    1.0000 </r>
       <r>   -7.4977    1.0000 </r>
       <r>   -6.9939    1.0000 </r>
       <r>   -6.6022    1.0000 </r>
       <r>   -6.3598    1.0000 </r>
       <r>   -6.2824    1.0000 </r>
       <r>   -5.9959    1.0000 </r>
       <r>   -5.8388    1.0000 </r>
       <r>   -5.7540    1.0000 </r>
       <r>   -5.6750    1.0000 </r>
       <r>   -5.3630    1.0000 </r>
       <r>   -5.3525    1.0000 </r>
       <r>   -5.3442    1.0000 </r>
       <r>   -5.3161    1.0000 </r>
       <r>   -5.2990    1.0000 </r>
       <r>   -5.2677    1.0000 </r>
       <r>   -5.0139    1.0000 </r>
       <r>   -4.8241    1.0000 </r>
       <r>   -4.8164    1.0000 </r>
       <r>   -4.7968    1.0000 </r>
       <r>   -4.7450    1.0000 </r>
       <r>   -4.6827    1.0000 </r>
       <r>   -4.6342    1.0000 </r>
       <r>   -4.4822    1.0000 </r>
       <r>   -4.3036    1.0000 </r>
       <r>   -3.9464    1.0000 </r>
       <r>   -3.9154    1.0000 </r>
       <r>   -3.8838    1.0000 </r>
       <r>   -3.7720    1.0000 </r>
       <r>   -3.7475    1.0000 </r>
       <r>   -3.4126    1.0000 </r>
       <r>   -3.1459    1.0000 </r>
       <r>   -2.7966    1.0000 </r>
       <r>   -2.7313    1.0000 </r>
       <r>   -2.7283    1.0000 </r>
       <r>   -2.6477    1.0000 </r>
       <r>   -2.5822    1.0000 </r>
       <r>   -1.9784    1.0000 </r>
       <r>   -1.7366    1.0000 </r>
       <r>   -1.3784    1.0000 </r>
       <r>   -1.2751    1.0000 </r>
       <r>   -1.2328    1.0000 </r>
       <r>   -1.2129    1.0000 </r>
       <r>   -1.1778    1.0000 </r>
       <r>   -1.1701    1.0000 </r>
       <r>   -1.1611    1.0000 </r>
       <r>   -1.1347    1.0000 </r>
       <r>   -1.1225    1.0000 </r>
       <r>   -1.1191    1.0000 </r>
       <r>   -1.0405    1.0000 </r>
       <r>   -0.8343    1.0000 </r>
       <r>   -0.8270    1.0000 </r>
       <r>   -0.7504    0.7328 </r>
       <r>   -0.6267    0.0000 </r>
       <r>   -0.6016    0.0000 </r>
       <r>   -0.5044    0.0000 </r>
       <r>   -0.3816    0.0000 </r>
       <r>   -0.1936    0.0000 </r>
       <r>   -0.1093    0.0000 </r>
       <r>    0.0388    0.0000 </r>
       <r>    0.0847    0.0000 </r>
       <r>    0.1490    0.0000 </r>
       <r>    0.1782    0.0000 </r>
       <r>    0.2014    0.0000 </r>
       <r>    0.2751    0.0000 </r>
       <r>    0.4008    0.0000 </r>
       <r>    0.5086    0.0000 </r>
       <r>    0.8265    0.0000 </r>
       <r>    0.9182    0.0000 </r>
       <r>    0.9271    0.0000 </r>
       <r>    0.9374    0.0000 </r>
       <r>    0.9667    0.0000 </r>
       <r>    0.9771    0.0000 </r>
       <r>    0.9948    0.0000 </r>
       <r>    1.0200    0.0000 </r>
       <r>    1.1012    0.0000 </r>
       <r>    1.2064    0.0000 </r>
       <r>    1.2189    0.0000 </r>
       <r>    1.2981    0.0000 </r>
       <r>    1.4742    0.0000 </r>
       <r>    1.4852    0.0000 </r>
       <r>    1.4998    0.0000 </r>
       <r>    1.5253    0.0000 </r>
       <r>    1.5384    0.0000 </r>
       <r>    1.5816    0.0000 </r>
       <r>    1.6971    0.0000 </r>
      </set>
      <set comment="kpoint 2">
       <r>  -23.8944    1.0000 </r>
       <r>  -23.6635    1.0000 </r>
       <r>  -23.3847    1.0000 </r>
       <r>  -23.2652    1.0000 </r>
       <r>  -22.6633    1.0000 </r>
       <r>  -20.8019    1.0000 </r>
       <r>  -11.9256    1.0000 </r>
       <r>  -11.7604    1.0000 </r>
       <r>  -11.1480    1.0000 </r>
       <r>  -11.0220    1.0000 </r>
       <r>  -10.8387    1.0000 </r>
       <r>   -8.8147    1.0000 </r>
       <r>   -8.6268    1.0000 </r>
       <r>   -8.3509    1.0000 </r>
       <r>   -7.9523    1.0000 </r>
       <r>   -7.7958    1.0000 </r>
       <r>   -7.7399    1.0000 </r>
       <r>   -7.2699    1.0000 </r>
       <r>   -6.8555    1.0000 </r>
       <r>   -6.5816    1.0000 </r>
       <r>   -6.5114    1.0000 </r>
       <r>   -6.3640    1.0000 </r>
       <r>   -6.2400    1.0000 </r>
       <r>   -5.9999    1.0000 </r>
       <r>   -5.8840    1.0000 </r>
       <r>   -5.8286    1.0000 </r>
       <r>   -5.8137    1.0000 </r>
       <r>   -5.7879    1.0000 </r>
       <r>   -5.6986    1.0000 </r>
       <r>   -5.5495    1.0000 </r>
       <r>   -5.2223    1.0000 </r>
       <r>   -5.1696    1.0000 </r>
       <r>   -4.9943    1.0000 </r>
       <r>   -4.8215    1.0000 </r>
       <r>   -4.5319    1.0000 </r>
       <r>   -4.4314    1.0000 </r>
       <r>   -4.3828    1.0000 </r>
       <r>   -4.3631    1.0000 </r>
       <r>   -4.2702    1.0000 </r>
       <r>   -4.0883    1.0000 </r>
       <r>   -3.8309    1.0000 </r>
       <r>   -3.7827    1.0000 </r>
       <r>   -3.6918    1.0000 </r>
       <r>   -3.5769    1.0000 </r>
       <r>   -3.1748    1.0000 </r>
       <r>   -3.1366    1.0000 </r>
       <r>   -3.0707    1.0000 </r>
       <r>   -3.0098    1.0000 </r>
       <r>   -2.9844    1.0000 </r>
       <r>   -2.9628    1.0000 </r>
       <r>   -2.8973    1.0000 </r>
       <r>   -2.5984    1.0000 </r>
       <r>   -2.4412    1.0000 </r>
       <r>   -2.3702    1.0000 </r>
       <r>   -2.2952    1.0000 </r>
       <r>   -2.1026    1.0000 </r>
       <r>   -1.8104    1.0000 </r>
       <r>   -1.7789    1.0000 </r>
       <r>   -1.6976    1.0000 </r>
       <r>   -1.6349    1.0000 </r>
       <r>   -1.5993    1.0000 </r>
       <r>   -1.5684    1.0000 </r>
       <r>   -1.5364    1.0000 </r>
       <r>   -1.4026    1.0000 </r>
       <r>   -1.0738    1.0000 </r>
       <r>   -0.9509    1.0000 </r>
       <r>   -0.9284    1.0000 </r>
       <r>   -0.8504    1.0000 </r>
       <r>   -0.7148    0.3906 </r>
       <r>   -0.7028    0.0927 </r>
       <r>   -0.6467   -0.0390 </r>
       <r>   -0.5509    0.0000 </r>
       <r>   -0.3382    0.0000 </r>
       <r>   -0.1615    0.0000 </r>
       <r>   -0.1245    0.0000 </r>
       <r>   -0.0569    0.0000 </r>
       <r>   -0.0337    0.0000 </r>
       <r>    0.1107    0.0000 </r>
       <r>    0.1673    0.0000 </r>
       <r>    0.2101    0.0000 </r>
       <r>    0.3378    0.0000 </r>
       <r>    0.4023    0.0000 </r>
       <r>    0.4426    0.0000 </r>
       <r>    0.5108    0.0000 </r>
       <r>    0.5440    0.0000 </r>
       <r>    0.6941    0.0000 </r>
       <r>    0.7976    0.0000 </r>
       <r>    0.8561    0.0000 </r>
       <r>    0.9471    0.0000 </r>
       <r>    1.0668    0.0000 </r>
       <r>    1.0801    0.0000 </r>
       <r>    1.1574    0.0000 </r>
       <r>    1.2100    0.0000 </r>
       <r>    1.2693    0.0000 </r>
       <r>    1.2891    0.0000 </r>
       <r>    1.3561    0.0000 </r>
       <r>    1.4361    0.0000 </r>
       <r>    1.5323    0.0000 </r>
       <r>    1.5704    0.0000 </r>
       <r>    1.6195    0.0000 </r>
       <r>    1.8238    0.0000 </r>
       <r>    2.0789    0.0000 </r>
      </set>
      <set comment="kpoint 3">
       <r>  -23.8942    1.0000 </r>
       <r>  -23.6645    1.0000 </r>
       <r>  -23.3815    1.0000 </r>
       <r>  -23.2679    1.0000 </r>
       <r>  -22.6630    1.0000 </r>
       <r>  -20.8019    1.0000 </r>
       <r>  -11.9255    1.0000 </r>
       <r>  -11.7603    1.0000 </r>
       <r>  -11.1359    1.0000 </r>
       <r>  -11.0403    1.0000 </r>
       <r>  -10.8321    1.0000 </r>
       <r>   -8.8153    1.0000 </r>
       <r>   -8.6351    1.0000 </r>
       <r>   -8.3393    1.0000 </r>
       <r>   -7.9646    1.0000 </r>
       <r>   -7.7951    1.0000 </r>
       <r>   -7.7276    1.0000 </r>
       <r>   -7.2694    1.0000 </r>
       <r>   -6.8554    1.0000 </r>
       <r>   -6.6086    1.0000 </r>
       <r>   -6.5095    1.0000 </r>
       <r>   -6.3391    1.0000 </r>
       <r>   -6.2434    1.0000 </r>
       <r>   -5.9984    1.0000 </r>
       <r>   -5.8971    1.0000 </r>
       <r>   -5.8454    1.0000 </r>
       <r>   -5.8072    1.0000 </r>
       <r>   -5.7816    1.0000 </r>
       <r>   -5.6966    1.0000 </r>
       <r>   -5.5293    1.0000 </r>
       <r>   -5.2374    1.0000 </r>
       <r>   -5.1710    1.0000 </r>
       <r>   -4.9985    1.0000 </r>
       <r>   -4.8155    1.0000 </r>
       <r>   -4.5358    1.0000 </r>
       <r>   -4.4136    1.0000 </r>
       <r>   -4.3799    1.0000 </r>
       <r>   -4.3683    1.0000 </r>
       <r>   -4.2219    1.0000 </r>
       <r>   -4.1324    1.0000 </r>
       <r>   -3.8484    1.0000 </r>
       <r>   -3.7767    1.0000 </r>
       <r>   -3.6825    1.0000 </r>
       <r>   -3.5665    1.0000 </r>
       <r>   -3.1779    1.0000 </r>
       <r>   -3.1327    1.0000 </r>
       <r>   -3.0785    1.0000 </r>
       <r>   -3.0189    1.0000 </r>
       <r>   -2.9912    1.0000 </r>
       <r>   -2.9650    1.0000 </r>
       <r>   -2.8731    1.0000 </r>
       <r>   -2.6387    1.0000 </r>
       <r>   -2.4340    1.0000 </r>
       <r>   -2.3691    1.0000 </r>
       <r>   -2.2931    1.0000 </r>
       <r>   -2.0843    1.0000 </r>
       <r>   -1.8321    1.0000 </r>
       <r>   -1.7708    1.0000 </r>
       <r>   -1.7156    1.0000 </r>
       <r>   -1.6363    1.0000 </r>
       <r>   -1.5983    1.0000 </r>
       <r>   -1.5709    1.0000 </r>
       <r>   -1.4884    1.0000 </r>
       <r>   -1.4126    1.0000 </r>
       <r>   -1.0469    1.0000 </r>
       <r>   -0.9540    1.0000 </r>
       <r>   -0.9282    1.0000 </r>
       <r>   -0.8487    1.0000 </r>
       <r>   -0.7227    0.4539 </r>
       <r>   -0.6966    0.0647 </r>
       <r>   -0.6791   -0.0242 </r>
       <r>   -0.5562    0.0000 </r>
       <r>   -0.3761    0.0000 </r>
       <r>   -0.1538    0.0000 </r>
       <r>   -0.0946    0.0000 </r>
       <r>   -0.0678    0.0000 </r>
       <r>   -0.0103    0.0000 </r>
       <r>    0.1037    0.0000 </r>
       <r>    0.1499    0.0000 </r>
       <r>    0.2431    0.0000 </r>
       <r>    0.3552    0.0000 </r>
       <r>    0.4004    0.0000 </r>
       <r>    0.4265    0.0000 </r>
       <r>    0.5168    0.0000 </r>
       <r>    0.5368    0.0000 </r>
       <r>    0.6641    0.0000 </r>
       <r>    0.8096    0.0000 </r>
       <r>    0.8843    0.0000 </r>
       <r>    0.9266    0.0000 </r>
       <r>    1.0198    0.0000 </r>
       <r>    1.0771    0.0000 </r>
       <r>    1.1893    0.0000 </r>
       <r>    1.2026    0.0000 </r>
       <r>    1.2823    0.0000 </r>
       <r>    1.2974    0.0000 </r>
       <r>    1.3531    0.0000 </r>
       <r>    1.4363    0.0000 </r>
       <r>    1.5549    0.0000 </r>
       <r>    1.5749    0.0000 </r>
       <r>    1.6505    0.0000 </r>
       <r>    1.8073    0.0000 </r>
       <r>    2.0235    0.0000 </r>
      </set>
      <set comment="kpoint 4">
       <r>  -23.8941    1.0000 </r>
       <r>  -23.6642    1.0000 </r>
       <r>  -23.3836    1.0000 </r>
       <r>  -23.2660    1.0000 </r>
       <r>  -22.6631    1.0000 </r>
       <r>  -20.8019    1.0000 </r>
       <r>  -11.9251    1.0000 </r>
       <r>  -11.7601    1.0000 </r>
       <r>  -11.1499    1.0000 </r>
       <r>  -11.0198    1.0000 </r>
       <r>  -10.8392    1.0000 </r>
       <r>   -8.8137    1.0000 </r>
       <r>   -8.6348    1.0000 </r>
       <r>   -8.3408    1.0000 </r>
       <r>   -7.9659    1.0000 </r>
       <r>   -7.7688    1.0000 </r>
       <r>   -7.7462    1.0000 </r>
       <r>   -6.9258    1.0000 </r>
       <r>   -6.7909    1.0000 </r>
       <r>   -6.7630    1.0000 </r>
       <r>   -6.6466    1.0000 </r>
       <r>   -6.4301    1.0000 </r>
       <r>   -6.3144    1.0000 </r>
       <r>   -6.2208    1.0000 </r>
       <r>   -6.1675    1.0000 </r>
       <r>   -5.9315    1.0000 </r>
       <r>   -5.8611    1.0000 </r>
       <r>   -5.8131    1.0000 </r>
       <r>   -5.6945    1.0000 </r>
       <r>   -5.3382    1.0000 </r>
       <r>   -5.2666    1.0000 </r>
       <r>   -4.9138    1.0000 </r>
       <r>   -4.8954    1.0000 </r>
       <r>   -4.6264    1.0000 </r>
       <r>   -4.6107    1.0000 </r>
       <r>   -4.5788    1.0000 </r>
       <r>   -4.3888    1.0000 </r>
       <r>   -4.1218    1.0000 </r>
       <r>   -4.0994    1.0000 </r>
       <r>   -4.0567    1.0000 </r>
       <r>   -4.0278    1.0000 </r>
       <r>   -3.9803    1.0000 </r>
       <r>   -3.5697    1.0000 </r>
       <r>   -3.1777    1.0000 </r>
       <r>   -3.1564    1.0000 </r>
       <r>   -2.9399    1.0000 </r>
       <r>   -2.5991    1.0000 </r>
       <r>   -2.5829    1.0000 </r>
       <r>   -2.5463    1.0000 </r>
       <r>   -2.5408    1.0000 </r>
       <r>   -2.5289    1.0000 </r>
       <r>   -2.5064    1.0000 </r>
       <r>   -2.5029    1.0000 </r>
       <r>   -2.4894    1.0000 </r>
       <r>   -2.3089    1.0000 </r>
       <r>   -2.0847    1.0000 </r>
       <r>   -2.0655    1.0000 </r>
       <r>   -2.0410    1.0000 </r>
       <r>   -2.0128    1.0000 </r>
       <r>   -1.9968    1.0000 </r>
       <r>   -1.9568    1.0000 </r>
       <r>   -1.9203    1.0000 </r>
       <r>   -1.8891    1.0000 </r>
       <r>   -1.6067    1.0000 </r>
       <r>   -1.4089    1.0000 </r>
       <r>   -1.3823    1.0000 </r>
       <r>   -1.1767    1.0000 </r>
       <r>   -1.1646    1.0000 </r>
       <r>   -1.0665    1.4296 </r>
       <r>   -0.8040    1.0224 </r>
       <r>   -0.7629    0.3000 </r>
       <r>   -0.7235    0.0000 </r>
       <r>   -0.6815    0.0000 </r>
[...]
       <r>   -21.9979     0.0000    10.0000 </r>
       <r>   -21.8980     0.0000    10.0000 </r>
       <r>   -21.7981     0.0000    10.0000 </r>
       <r>   -21.6982     0.0000    10.0000 </r>
       <r>   -21.5983     0.0000    10.0000 </r>
       <r>   -21.4983     0.0000    10.0000 </r>
       <r>   -21.3984     0.0000    10.0000 </r>
       <r>   -21.2985     0.0000    10.0000 </r>
       <r>   -21.1986     0.0000    10.0000 </r>
       <r>   -21.0987     0.0000    10.0000 </r>
       <r>   -20.9988     0.0000    10.0000 </r>
       <r>   -20.8989     0.0000    10.0000 </r>
       <r>   -20.7990     0.0000    12.0000 </r>
       <r>   -20.6991     0.0000    12.0000 </r>
       <r>   -20.5991     0.0000    12.0000 </r>
       <r>   -20.4992     0.0000    12.0000 </r>
       <r>   -20.3993     0.0000    12.0000 </r>
       <r>   -20.2994     0.0000    12.0000 </r>
       <r>   -20.1995     0.0000    12.0000 </r>
       <r>   -20.0996     0.0000    12.0000 </r>
       <r>   -19.9997     0.0000    12.0000 </r>
       <r>   -19.8998     0.0000    12.0000 </r>
       <r>   -19.7999     0.0000    12.0000 </r>
       <r>   -19.6999     0.0000    12.0000 </r>
       <r>   -19.6000     0.0000    12.0000 </r>
       <r>   -19.5001     0.0000    12.0000 </r>
       <r>   -19.4002     0.0000    12.0000 </r>
       <r>   -19.3003     0.0000    12.0000 </r>
       <r>   -19.2004     0.0000    12.0000 </r>
       <r>   -19.1005     0.0000    12.0000 </r>
       <r>   -19.0006     0.0000    12.0000 </r>
       <r>   -18.9007     0.0000    12.0000 </r>
       <r>   -18.8007     0.0000    12.0000 </r>
       <r>   -18.7008     0.0000    12.0000 </r>
       <r>   -18.6009     0.0000    12.0000 </r>
       <r>   -18.5010     0.0000    12.0000 </r>
       <r>   -18.4011     0.0000    12.0000 </r>
       <r>   -18.3012     0.0000    12.0000 </r>
       <r>   -18.2013     0.0000    12.0000 </r>
       <r>   -18.1014     0.0000    12.0000 </r>
       <r>   -18.0015     0.0000    12.0000 </r>
       <r>   -17.9015     0.0000    12.0000 </r>
       <r>   -17.8016     0.0000    12.0000 </r>
       <r>   -17.7017     0.0000    12.0000 </r>
       <r>   -17.6018     0.0000    12.0000 </r>
       <r>   -17.5019     0.0000    12.0000 </r>
       <r>   -17.4020     0.0000    12.0000 </r>
       <r>   -17.3021     0.0000    12.0000 </r>
       <r>   -17.2022     0.0000    12.0000 </r>
       <r>   -17.1023     0.0000    12.0000 </r>
       <r>   -17.0023     0.0000    12.0000 </r>
       <r>   -16.9024     0.0000    12.0000 </r>
       <r>   -16.8025     0.0000    12.0000 </r>
       <r>   -16.7026     0.0000    12.0000 </r>
       <r>   -16.6027     0.0000    12.0000 </r>
       <r>   -16.5028     0.0000    12.0000 </r>
       <r>   -16.4029     0.0000    12.0000 </r>
       <r>   -16.3030     0.0000    12.0000 </r>
       <r>   -16.2030     0.0000    12.0000 </r>
       <r>   -16.1031     0.0000    12.0000 </r>
       <r>   -16.0032     0.0000    12.0000 </r>
       <r>   -15.9033     0.0000    12.0000 </r>
       <r>   -15.8034     0.0000    12.0000 </r>
       <r>   -15.7035     0.0000    12.0000 </r>
       <r>   -15.6036     0.0000    12.0000 </r>
       <r>   -15.5037     0.0000    12.0000 </r>
       <r>   -15.4038     0.0000    12.0000 </r>
       <r>   -15.3038     0.0000    12.0000 </r>
       <r>   -15.2039     0.0000    12.0000 </r>
       <r>   -15.1040     0.0000    12.0000 </r>
       <r>   -15.0041     0.0000    12.0000 </r>
       <r>   -14.9042     0.0000    12.0000 </r>
       <r>   -14.8043     0.0000    12.0000 </r>
       <r>   -14.7044     0.0000    12.0000 </r>
       <r>   -14.6045     0.0000    12.0000 </r>
       <r>   -14.5046     0.0000    12.0000 </r>
       <r>   -14.4046     0.0000    12.0000 </r>
       <r>   -14.3047     0.0000    12.0000 </r>
       <r>   -14.2048     0.0000    12.0000 </r>
       <r>   -14.1049     0.0000    12.0000 </r>
       <r>   -14.0050     0.0000    12.0000 </r>
       <r>   -13.9051     0.0000    12.0000 </r>
       <r>   -13.8052     0.0000    12.0000 </r>
       <r>   -13.7053     0.0000    12.0000 </r>
       <r>   -13.6054     0.0000    12.0000 </r>
       <r>   -13.5054     0.0000    12.0000 </r>
       <r>   -13.4055     0.0000    12.0000 </r>
       <r>   -13.3056     0.0000    12.0000 </r>
       <r>   -13.2057     0.0000    12.0000 </r>
       <r>   -13.1058     0.0000    12.0000 </r>
       <r>   -13.0059     0.0000    12.0000 </r>
       <r>   -12.9060     0.0000    12.0000 </r>
       <r>   -12.8061     0.0000    12.0000 </r>
       <r>   -12.7062     0.0000    12.0000 </r>
       <r>   -12.6062     0.0000    12.0000 </r>
       <r>   -12.5063     0.0000    12.0000 </r>
       <r>   -12.4064     0.0000    12.0000 </r>
       <r>   -12.3065     0.0000    12.0000 </r>
       <r>   -12.2066     0.0000    12.0000 </r>
       <r>   -12.1067     0.0000    12.0000 </r>
       <r>   -12.0068     0.0000    12.0000 </r>
       <r>   -11.9069     0.0000    14.0000 </r>
       <r>   -11.8070     0.0000    14.0000 </r>
       <r>   -11.7070     0.0000    16.0000 </r>
       <r>   -11.6071     0.0000    16.0000 </r>
       <r>   -11.5072     0.0000    16.0000 </r>
       <r>   -11.4073     0.0000    16.0000 </r>
       <r>   -11.3074     0.0000    16.0000 </r>
       <r>   -11.2075     0.0000    16.0000 </r>
       <r>   -11.1076     0.0000    18.0000 </r>
       <r>   -11.0077     0.0000    20.0000 </r>
       <r>   -10.9078     0.0000    20.0000 </r>
       <r>   -10.8078     0.0000    22.0000 </r>
       <r>   -10.7079     0.0000    22.0000 </r>
       <r>   -10.6080     0.0000    22.0000 </r>
       <r>   -10.5081     0.0000    22.0000 </r>
       <r>   -10.4082     0.0000    22.0000 </r>
       <r>   -10.3083     0.0000    22.0000 </r>
       <r>   -10.2084     0.0000    22.0000 </r>
       <r>   -10.1085     0.0000    22.0000 </r>
       <r>   -10.0086     0.0000    22.0000 </r>
       <r>    -9.9086     0.0000    22.0000 </r>
       <r>    -9.8087     0.0000    22.0000 </r>
       <r>    -9.7088     0.0000    22.0000 </r>
       <r>    -9.6089     0.0000    22.0000 </r>
       <r>    -9.5090     0.0000    22.0000 </r>
       <r>    -9.4091     0.0000    22.0000 </r>
       <r>    -9.3092     0.0000    22.0000 </r>
       <r>    -9.2093     0.0000    22.0000 </r>
       <r>    -9.1094     0.0000    22.0000 </r>
       <r>    -9.0094     0.0000    22.0000 </r>
       <r>    -8.9095     0.0000    22.0000 </r>
       <r>    -8.8096     0.0000    24.0000 </r>
       <r>    -8.7097     0.0000    24.0000 </r>
       <r>    -8.6098     0.0000    26.0000 </r>
       <r>    -8.5099     0.0000    26.0000 </r>
       <r>    -8.4100     0.0000    26.0000 </r>
       <r>    -8.3101     0.0000    28.0000 </r>
       <r>    -8.2102     0.0000    28.0000 </r>
       <r>    -8.1102     0.0000    28.0000 </r>
       <r>    -8.0103     0.0000    28.0000 </r>
       <r>    -7.9104     0.0000    30.0000 </r>
       <r>    -7.8105    17.1365    30.0768 </r>
       <r>    -7.7106     0.0000    34.0000 </r>
       <r>    -7.6107     0.0000    34.0000 </r>
       <r>    -7.5108     0.0000    34.0000 </r>
       <r>    -7.4109     2.2392    34.0973 </r>
       <r>    -7.3110     4.8142    34.4496 </r>
       <r>    -7.2110     6.4090    35.0858 </r>
       <r>    -7.1111     4.1645    35.6140 </r>
       <r>    -7.0112     1.9199    35.9180 </r>
       <r>    -6.9113     5.9754    36.2466 </r>
       <r>    -6.8114    12.1971    37.8750 </r>
       <r>    -6.7115     4.8816    38.1258 </r>
       <r>    -6.6116    19.3046    39.1731 </r>
       <r>    -6.5117    19.1069    41.2893 </r>
       <r>    -6.4118    10.2343    41.9850 </r>
       <r>    -6.3118    13.0544    43.8389 </r>
       <r>    -6.2119     4.9130    45.5237 </r>
       <r>    -6.1120    10.1983    46.2376 </r>
       <r>    -6.0121    16.9629    47.5944 </r>
       <r>    -5.9122    17.8323    49.0012 </r>
       <r>    -5.8123    51.1318    52.5863 </r>
       <r>    -5.7124     6.8355    55.0982 </r>
       <r>    -5.6125     6.4100    57.1635 </r>
       <r>    -5.5126    21.7868    58.0653 </r>
       <r>    -5.4126     9.4697    59.6267 </r>
       <r>    -5.3127     0.0000    60.0000 </r>
       <r>    -5.2128     7.8538    62.2155 </r>
       <r>    -5.1129     8.0159    63.2018 </r>
       <r>    -5.0130     5.8928    63.8027 </r>
       <r>    -4.9131    20.0585    65.8226 </r>
       <r>    -4.8132    11.4852    66.9324 </r>
       <r>    -4.7133     8.0736    67.8924 </r>
       <r>    -4.6134     7.4063    68.6089 </r>
       <r>    -4.5134    14.8624    71.1089 </r>
       <r>    -4.4135    17.1641    73.2101 </r>
       <r>    -4.3136    13.6058    75.8017 </r>
       <r>    -4.2137    19.3505    77.4737 </r>
       <r>    -4.1138    14.2300    78.8585 </r>
       <r>    -4.0139     2.8727    80.2691 </r>
       <r>    -3.9140    17.0098    81.1373 </r>
       <r>    -3.8141    20.4350    83.4658 </r>
       <r>    -3.7142     7.6877    84.7117 </r>
       <r>    -3.6142    13.7986    86.3728 </r>
       <r>    -3.5143     7.5766    87.2449 </r>
       <r>    -3.4144     6.5837    87.9522 </r>
       <r>    -3.3145     6.7416    88.6168 </r>
       <r>    -3.2146     6.9214    89.2994 </r>
       <r>    -3.1147    17.9301    91.4942 </r>
       <r>    -3.0148    18.9094    93.4179 </r>
       <r>    -2.9149    31.7066    96.0064 </r>
       <r>    -2.8150    25.9827    99.2175 </r>
       <r>    -2.7150    11.8212   101.0354 </r>
       <r>    -2.6151    23.3010   102.3970 </r>
       <r>    -2.5152     7.0585   104.1416 </r>
       <r>    -2.4153    14.5004   106.5373 </r>
       <r>    -2.3154     2.8935   107.5125 </r>
       <r>    -2.2155     4.1233   109.2589 </r>
       <r>    -2.1156     2.8298   109.6062 </r>
       <r>    -2.0157     6.3298   111.3595 </r>
       <r>    -1.9158    18.7125   112.5493 </r>
       <r>    -1.8158    33.0223   115.2591 </r>
       <r>    -1.7159    32.4176   118.3096 </r>
       <r>    -1.6160    27.3878   121.3403 </r>
       <r>    -1.5161    21.4742   123.7029 </r>
       <r>    -1.4162    21.9352   125.8565 </r>
       <r>    -1.3163    12.3464   127.3577 </r>
       <r>    -1.2164    10.0148   128.4662 </r>
       <r>    -1.1165    15.0867   129.5474 </r>
       <r>    -1.0166    21.3054   131.8867 </r>
       <r>    -0.9166    21.7709   134.5613 </r>
       <r>    -0.8167     5.5405   136.6918 </r>
       <r>    -0.7168    40.3836   139.1214 </r>
       <r>    -0.6169    25.1618   142.5504 </r>
       <r>    -0.5170    10.2322   144.3169 </r>
       <r>    -0.4171    10.7312   145.1259 </r>
       <r>    -0.3172     7.9128   146.8976 </r>
       <r>    -0.2173    14.2824   147.8775 </r>
       <r>    -0.1174    37.9499   149.5777 </r>
       <r>    -0.0174    46.2592   152.2203 </r>
       <r>     0.0825    21.2202   154.3799 </r>
       <r>     0.1824    16.2194   158.4022 </r>
       <r>     0.2823    11.9337   160.3003 </r>
       <r>     0.3822     0.0000   162.0000 </r>
       <r>     0.4821    25.0920   164.6042 </r>
       <r>     0.5820    28.9382   167.2932 </r>
       <r>     0.6819    19.1013   169.3014 </r>
       <r>     0.7818    12.0962   171.3092 </r>
       <r>     0.8818    30.0133   173.6958 </r>
       <r>     0.9817     9.9389   176.1978 </r>
       <r>     1.0816    26.0933   178.5596 </r>
       <r>     1.1815    20.3094   181.0817 </r>
       <r>     1.2814    26.7850   184.6248 </r>
       <r>     1.3813    40.2971   188.7254 </r>
       <r>     1.4812    30.1359   192.5336 </r>
       <r>     1.5811    48.7386   196.7011 </r>
       <r>     1.6810    16.6014   199.7727 </r>
       <r>     1.7810    27.8063   200.7150 </r>
       <r>     1.8809     1.8877   202.1734 </r>
       <r>     1.9808     2.9141   202.4133 </r>
       <r>     2.0807     0.0000   204.0000 </r>
       <r>     2.1806     0.0000   204.0000 </r>
       <r>     2.2805     0.0000   204.0000 </r>
       <r>     2.3804     0.0000   204.0000 </r>
       <r>     2.4803     0.0000   204.0000 </r>
       <r>     2.5802     0.0000   204.0000 </r>
       <r>     2.6802     0.0000   204.0000 </r>
       <r>     2.7801     0.0000   204.0000 </r>
       <r>     2.8800     0.0000   204.0000 </r>
       <r>     2.9799     0.0000   204.0000 </r>
       <r>     3.0798     0.0000   204.0000 </r>
       <r>     3.1797     0.0000   204.0000 </r>
       <r>     3.2796     0.0000   204.0000 </r>
       <r>     3.3795     0.0000   204.0000 </r>
       <r>     3.4794     0.0000   204.0000 </r>
       <r>     3.5794     0.0000   204.0000 </r>
       <r>     3.6793     0.0000   204.0000 </r>
       <r>     3.7792     0.0000   204.0000 </r>
       <r>     3.8791     0.0000   204.0000 </r>
       <r>     3.9790     0.0000   204.0000 </r>
       <r>     4.0789     0.0000   204.0000 </r>
      </set>
     </set>
    </array>
   </total>
  </dos>
 </calculation>
 <structure name="finalpos" >
  <crystal>
   <varray name="basis" >
    <v>       9.55575275       0.00000000       0.00000000 </v>
    <v>      -4.77787638       8.27552464       0.00000000 </v>
    <v>       0.00000000       0.00000000      32.62509537 </v>
   </varray>
   <i name="volume">   2579.95558872 </i>
   <varray name="rec_basis" >
    <v>       0.10464900       0.06041913       0.00000000 </v>
    <v>       0.00000000       0.12083826       0.00000000 </v>
    <v>       0.00000000       0.00000000       0.03065125 </v>
   </varray>
  </crystal>
  <varray name="positions" >
   <v>       0.00000000       0.00000000       0.00000000 </v>
   <v>       0.99764876       0.99829861       0.15812519 </v>
   <v>       0.99971380       0.00290886       0.33091279 </v>
   <v>       0.00000001       0.33333336       0.00000000 </v>
   <v>       0.99899076       0.33261417       0.15749120 </v>
   <v>       0.98827860       0.33027462       0.31041080 </v>
   <v>       0.00000002       0.66666672       0.00000000 </v>
   <v>       0.99760260       0.66487610       0.15773479 </v>
   <v>       0.99875201       0.67232739       0.31393229 </v>
   <v>       0.33333334       0.00000000       0.00000000 </v>
   <v>       0.33192496       0.99837178       0.15720926 </v>
   <v>       0.32409783       0.99753723       0.30872357 </v>
   <v>       0.33333335       0.33333336       0.00000000 </v>
   <v>       0.33127952       0.33103253       0.15694935 </v>
   <v>       0.31866712       0.32401571       0.31174748 </v>
   <v>       0.33333336       0.66666672       0.00000000 </v>
   <v>       0.33103594       0.66588171       0.15795044 </v>
   <v>       0.31419025       0.66919983       0.33048248 </v>
   <v>       0.66666668       0.00000000       0.00000000 </v>
   <v>       0.66544826       0.99735263       0.15765655 </v>
   <v>       0.66340035       0.00034842       0.31384342 </v>
   <v>       0.66666668       0.33333336       0.00000000 </v>
   <v>       0.66563522       0.33378794       0.15879373 </v>
   <v>       0.65775387       0.31584677       0.32590058 </v>
   <v>       0.66666670       0.66666672       0.00000000 </v>
   <v>       0.66799639       0.66619340       0.15889050 </v>
   <v>       0.65827270       0.66929576       0.32881282 </v>
   <v>       0.11111113       0.22222222       0.07982145 </v>
   <v>       0.10583686       0.21744197       0.23573110 </v>
   <v>       0.11111114       0.55555561       0.07982145 </v>
   <v>       0.11279400       0.55677355       0.23658367 </v>
   <v>       0.11111116       0.88888894       0.07982145 </v>
   <v>       0.10491255       0.88566969       0.23438945 </v>
   <v>       0.44444450       0.22222222       0.07982145 </v>
   <v>       0.44382072       0.22384403       0.23571221 </v>
   <v>       0.44444450       0.55555561       0.07982145 </v>
   <v>       0.44252082       0.55436737       0.23450897 </v>
   <v>       0.44444451       0.88888894       0.07982145 </v>
   <v>       0.44175811       0.88168377       0.23617868 </v>
   <v>       0.77777779       0.22222222       0.07982145 </v>
   <v>       0.77118327       0.21774407       0.23482956 </v>
   <v>       0.77777781       0.55555561       0.07982145 </v>
   <v>       0.76810412       0.54828516       0.24159029 </v>
   <v>       0.77777784       0.88888894       0.07982145 </v>
   <v>       0.77674979       0.88255266       0.24062267 </v>
   <v>       0.99521463       0.01004538       0.39633634 </v>
   <v>       0.27966272       0.96502458       0.41271323 </v>
   <v>       0.90415999       0.24272811       0.41316636 </v>
   <v>       0.63292088       0.34400658       0.38800297 </v>
   <v>       0.64539696       0.61250794       0.38766187 </v>
   <v>       0.32180359       0.68630462       0.39566499 </v>
   <v>       0.97331874       0.09306714       0.40825279 </v>
   <v>       0.08493931       0.01102045       0.41137943 </v>
   <v>       0.37996252       0.07014328       0.41154945 </v>
   <v>       0.24517585       0.94371698       0.38342159 </v>
   <v>       0.99925330       0.35079701       0.41041844 </v>
   <v>       0.85974960       0.21793714       0.38472206 </v>
   <v>       0.64137513       0.46106099       0.39193485 </v>
   <v>       0.71157938       0.33765383       0.40594567 </v>
   <v>       0.72909891       0.69399582       0.40510914 </v>
   <v>       0.41956793       0.54293780       0.33048466 </v>
   <v>       0.31928396       0.78066850       0.40745009 </v>
   <v>       0.40955520       0.67759629       0.40871504 </v>
  </varray>
  <varray name="selective"  type="logical" >
   <v type="logical" >  F  F  F </v>
   <v type="logical" >  T  T  T </v>
   <v type="logical" >  T  T  T </v>
   <v type="logical" >  F  F  F </v>
   <v type="logical" >  T  T  T </v>
   <v type="logical" >  T  T  T </v>
   <v type="logical" >  F  F  F </v>
   <v type="logical" >  T  T  T </v>
   <v type="logical" >  T  T  T </v>
   <v type="logical" >  F  F  F </v>
   <v type="logical" >  T  T  T </v>
   <v type="logical" >  T  T  T </v>
   <v type="logical" >  F  F  F </v>
   <v type="logical" >  T  T  T </v>
   <v type="logical" >  T  T  T </v>
   <v type="logical" >  F  F  F </v>
   <v type="logical" >  T  T  T </v>
   <v type="logical" >  T  T  T </v>
   <v type="logical" >  F  F  F </v>
   <v type="logical" >  T  T  T </v>
   <v type="logical" >  T  T  T </v>
   <v type="logical" >  F  F  F </v>
   <v type="logical" >  T  T  T </v>
   <v type="logical" >  T  T  T </v>
   <v type="logical" >  F  F  F </v>
   <v type="logical" >  T  T  T </v>
   <v type="logical" >  T  T  T </v>
   <v type="logical" >  F  F  F </v>
   <v type="logical" >  T  T  T </v>
   <v type="logical" >  F  F  F </v>
   <v type="logical" >  T  T  T </v>
   <v type="logical" >  F  F  F </v>
   <v type="logical" >  T  T  T </v>
   <v type="logical" >  F  F  F </v>
   <v type="logical" >  T  T  T </v>
   <v type="logical" >  F  F  F </v>
   <v type="logical" >  T  T  T </v>
   <v type="logical" >  F  F  F </v>
   <v type="logical" >  T  T  T </v>
   <v type="logical" >  F  F  F </v>
   <v type="logical" >  T  T  T </v>
   <v type="logical" >  F  F  F </v>
   <v type="logical" >  T  T  T </v>
   <v type="logical" >  F  F  F </v>
   <v type="logical" >  T  T  T </v>
   <v type="logical" >  T  T  T </v>
   <v type="logical" >  T  T  T </v>
   <v type="logical" >  T  T  T </v>
   <v type="logical" >  T  T  T </v>
   <v type="logical" >  T  T  T </v>
   <v type="logical" >  T  T  T </v>
   <v type="logical" >  T  T  T </v>
   <v type="logical" >  T  T  T </v>
   <v type="logical" >  T  T  T </v>
   <v type="logical" >  T  T  T </v>
   <v type="logical" >  T  T  T </v>
   <v type="logical" >  T  T  T </v>
   <v type="logical" >  T  T  T </v>
   <v type="logical" >  T  T  T </v>
   <v type="logical" >  T  T  T </v>
   <v type="logical" >  T  T  T </v>
   <v type="logical" >  T  T  T </v>
   <v type="logical" >  T  T  T </v>
  </varray>
  <nose>
   <v>      -3.00000000       0.00000000       0.00010000       0.00010000 </v>
  </nose>
 </structure>
</modeling>
