Mg_slab_in_a_box                        
           1
     9.555753    0.000000    0.000000
    -4.777876    8.275525    0.000000
     0.000000    0.000000   32.625095
   Mg   O    H 
  45   6  12
Direct configuration=     1
   0.00000000  0.00000000  0.00000000
   0.99764876  0.99829861  0.15812519
   0.99971380  0.00290886  0.33091279
   0.00000001  0.33333336  0.00000000
   0.99899076  0.33261417  0.15749120
   0.98827860  0.33027462  0.31041080
   0.00000002  0.66666672  0.00000000
   0.99760260  0.66487610  0.15773479
   0.99875201  0.67232739  0.31393229
   0.33333334  0.00000000  0.00000000
   0.33192496  0.99837178  0.15720926
   0.32409783  0.99753723  0.30872357
   0.33333335  0.33333336  0.00000000
   0.33127952  0.33103253  0.15694935
   0.31866712  0.32401571  0.31174748
   0.33333336  0.66666672  0.00000000
   0.33103594  0.66588171  0.15795044
   0.31419025  0.66919983  0.33048248
   0.66666668  0.00000000  0.00000000
   0.66544826  0.99735263  0.15765655
   0.66340035  0.00034842  0.31384342
   0.66666668  0.33333336  0.00000000
   0.66563522  0.33378794  0.15879373
   0.65775387  0.31584677  0.32590058
   0.66666670  0.66666672  0.00000000
   0.66799639  0.66619340  0.15889050
   0.65827270  0.66929576  0.32881282
   0.11111113  0.22222222  0.07982145
   0.10583686  0.21744197  0.23573110
   0.11111114  0.55555561  0.07982145
   0.11279400  0.55677355  0.23658367
   0.11111116  0.88888894  0.07982145
   0.10491255  0.88566969  0.23438945
   0.44444450  0.22222222  0.07982145
   0.44382072  0.22384403  0.23571221
   0.44444450  0.55555561  0.07982145
   0.44252082  0.55436737  0.23450897
   0.44444451  0.88888894  0.07982145
   0.44175811  0.88168377  0.23617868
   0.77777779  0.22222222  0.07982145
   0.77118327  0.21774407  0.23482956
   0.77777781  0.55555561  0.07982145
   0.76810412  0.54828516  0.24159029
   0.77777784  0.88888894  0.07982145
   0.77674979  0.88255266  0.24062267
   0.99521463  0.01004538  0.39633634
   0.27966272  0.96502458  0.41271323
   0.90415999  0.24272811  0.41316636
   0.63292088  0.34400658  0.38800297
   0.64539696  0.61250794  0.38766187
   0.32180359  0.68630462  0.39566499
   0.97331874  0.09306714  0.40825279
   0.08493931  0.01102045  0.41137943
   0.37996252  0.07014328  0.41154945
   0.24517585  0.94371698  0.38342159
   0.99925330  0.35079701  0.41041844
   0.85974960  0.21793714  0.38472206
   0.64137513  0.46106099  0.39193485
   0.71157938  0.33765383  0.40594567
   0.72909891  0.69399582  0.40510914
   0.41956793  0.54293780  0.33048466
   0.31928396  0.78066850  0.40745009
   0.40955520  0.67759629  0.40871504
