  63  63   0   0
  0.4095168E+02  0.9555753E-09  0.9555753E-09  0.3262510E-08  0.5000000E-15
  1.000000000000000E-004
  CAR 
 Mg_slab_in_a_box                        
      4.10388486    -25.87338809  301     -0.73856838      1.00000000
    -25.873  0.0000E+00  0.0000E+00
    -25.773  0.0000E+00  0.0000E+00
    -25.674  0.0000E+00  0.0000E+00
    -25.574  0.0000E+00  0.0000E+00
    -25.474  0.0000E+00  0.0000E+00
    -25.374  0.0000E+00  0.0000E+00
    -25.274  0.0000E+00  0.0000E+00
    -25.174  0.0000E+00  0.0000E+00
    -25.074  0.0000E+00  0.0000E+00
    -24.974  0.0000E+00  0.0000E+00
    -24.874  0.0000E+00  0.0000E+00
    -24.774  0.0000E+00  0.0000E+00
    -24.674  0.0000E+00  0.0000E+00
    -24.574  0.0000E+00  0.0000E+00
    -24.474  0.0000E+00  0.0000E+00
    -24.375  0.0000E+00  0.0000E+00
    -24.275  0.0000E+00  0.0000E+00
    -24.175  0.0000E+00  0.0000E+00
    -24.075  0.0000E+00  0.0000E+00
    -23.975  0.0000E+00  0.0000E+00
    -23.875  0.0000E+00  0.0000E+00
    -23.775  0.0000E+00  0.2000E+01
    -23.675  0.0000E+00  0.4000E+01
    -23.575  0.0000E+00  0.4000E+01
    -23.475  0.0000E+00  0.4000E+01
    -23.375  0.0000E+00  0.4000E+01
    -23.275  0.0000E+00  0.6000E+01
    -23.175  0.0000E+00  0.8000E+01
    -23.076  0.0000E+00  0.8000E+01
    -22.976  0.0000E+00  0.8000E+01
    -22.876  0.0000E+00  0.1000E+02
    -22.776  0.0000E+00  0.1000E+02
    -22.676  0.0000E+00  0.1000E+02
    -22.576  0.0000E+00  0.1000E+02
    -22.476  0.0000E+00  0.1000E+02
    -22.376  0.0000E+00  0.1000E+02
    -22.276  0.0000E+00  0.1000E+02
    -22.176  0.0000E+00  0.1000E+02
    -22.076  0.0000E+00  0.1000E+02
    -21.976  0.0000E+00  0.1000E+02
    -21.876  0.0000E+00  0.1000E+02
    -21.776  0.0000E+00  0.1000E+02
    -21.677  0.0000E+00  0.1000E+02
    -21.577  0.0000E+00  0.1000E+02
    -21.477  0.0000E+00  0.1000E+02
    -21.377  0.0000E+00  0.1000E+02
    -21.277  0.0000E+00  0.1000E+02
    -21.177  0.0000E+00  0.1000E+02
    -21.077  0.0000E+00  0.1000E+02
    -20.977  0.0000E+00  0.1000E+02
    -20.877  0.0000E+00  0.1000E+02
    -20.777  0.0000E+00  0.1200E+02
    -20.677  0.0000E+00  0.1200E+02
    -20.577  0.0000E+00  0.1200E+02
    -20.477  0.0000E+00  0.1200E+02
    -20.378  0.0000E+00  0.1200E+02
    -20.278  0.0000E+00  0.1200E+02
    -20.178  0.0000E+00  0.1200E+02
    -20.078  0.0000E+00  0.1200E+02
    -19.978  0.0000E+00  0.1200E+02
    -19.878  0.0000E+00  0.1200E+02
    -19.778  0.0000E+00  0.1200E+02
    -19.678  0.0000E+00  0.1200E+02
    -19.578  0.0000E+00  0.1200E+02
    -19.478  0.0000E+00  0.1200E+02
    -19.378  0.0000E+00  0.1200E+02
    -19.278  0.0000E+00  0.1200E+02
    -19.178  0.0000E+00  0.1200E+02
    -19.079  0.0000E+00  0.1200E+02
    -18.979  0.0000E+00  0.1200E+02
    -18.879  0.0000E+00  0.1200E+02
    -18.779  0.0000E+00  0.1200E+02
    -18.679  0.0000E+00  0.1200E+02
    -18.579  0.0000E+00  0.1200E+02
    -18.479  0.0000E+00  0.1200E+02
    -18.379  0.0000E+00  0.1200E+02
    -18.279  0.0000E+00  0.1200E+02
    -18.179  0.0000E+00  0.1200E+02
    -18.079  0.0000E+00  0.1200E+02
    -17.979  0.0000E+00  0.1200E+02
    -17.879  0.0000E+00  0.1200E+02
    -17.780  0.0000E+00  0.1200E+02
    -17.680  0.0000E+00  0.1200E+02
    -17.580  0.0000E+00  0.1200E+02
    -17.480  0.0000E+00  0.1200E+02
    -17.380  0.0000E+00  0.1200E+02
    -17.280  0.0000E+00  0.1200E+02
    -17.180  0.0000E+00  0.1200E+02
    -17.080  0.0000E+00  0.1200E+02
    -16.980  0.0000E+00  0.1200E+02
    -16.880  0.0000E+00  0.1200E+02
    -16.780  0.0000E+00  0.1200E+02
    -16.680  0.0000E+00  0.1200E+02
    -16.580  0.0000E+00  0.1200E+02
    -16.481  0.0000E+00  0.1200E+02
    -16.381  0.0000E+00  0.1200E+02
    -16.281  0.0000E+00  0.1200E+02
    -16.181  0.0000E+00  0.1200E+02
    -16.081  0.0000E+00  0.1200E+02
    -15.981  0.0000E+00  0.1200E+02
    -15.881  0.0000E+00  0.1200E+02
    -15.781  0.0000E+00  0.1200E+02
    -15.681  0.0000E+00  0.1200E+02
    -15.581  0.0000E+00  0.1200E+02
    -15.481  0.0000E+00  0.1200E+02
    -15.381  0.0000E+00  0.1200E+02
    -15.281  0.0000E+00  0.1200E+02
    -15.181  0.0000E+00  0.1200E+02
    -15.082  0.0000E+00  0.1200E+02
    -14.982  0.0000E+00  0.1200E+02
    -14.882  0.0000E+00  0.1200E+02
    -14.782  0.0000E+00  0.1200E+02
    -14.682  0.0000E+00  0.1200E+02
    -14.582  0.0000E+00  0.1200E+02
    -14.482  0.0000E+00  0.1200E+02
    -14.382  0.0000E+00  0.1200E+02
    -14.282  0.0000E+00  0.1200E+02
    -14.182  0.0000E+00  0.1200E+02
    -14.082  0.0000E+00  0.1200E+02
    -13.982  0.0000E+00  0.1200E+02
    -13.882  0.0000E+00  0.1200E+02
    -13.783  0.0000E+00  0.1200E+02
    -13.683  0.0000E+00  0.1200E+02
    -13.583  0.0000E+00  0.1200E+02
    -13.483  0.0000E+00  0.1200E+02
    -13.383  0.0000E+00  0.1200E+02
    -13.283  0.0000E+00  0.1200E+02
    -13.183  0.0000E+00  0.1200E+02
    -13.083  0.0000E+00  0.1200E+02
    -12.983  0.0000E+00  0.1200E+02
    -12.883  0.0000E+00  0.1200E+02
    -12.783  0.0000E+00  0.1200E+02
    -12.683  0.0000E+00  0.1200E+02
    -12.583  0.0000E+00  0.1200E+02
    -12.484  0.0000E+00  0.1200E+02
    -12.384  0.0000E+00  0.1200E+02
    -12.284  0.0000E+00  0.1200E+02
    -12.184  0.0000E+00  0.1200E+02
    -12.084  0.0000E+00  0.1200E+02
    -11.984  0.0000E+00  0.1200E+02
    -11.884  0.0000E+00  0.1400E+02
    -11.784  0.0000E+00  0.1400E+02
    -11.684  0.0000E+00  0.1600E+02
    -11.584  0.0000E+00  0.1600E+02
    -11.484  0.0000E+00  0.1600E+02
    -11.384  0.0000E+00  0.1600E+02
    -11.284  0.0000E+00  0.1600E+02
    -11.185  0.0000E+00  0.1800E+02
    -11.085  0.0000E+00  0.1800E+02
    -10.985  0.0000E+00  0.2000E+02
    -10.885  0.0000E+00  0.2200E+02
    -10.785  0.0000E+00  0.2200E+02
    -10.685  0.0000E+00  0.2200E+02
    -10.585  0.0000E+00  0.2200E+02
    -10.485  0.0000E+00  0.2200E+02
    -10.385  0.0000E+00  0.2200E+02
    -10.285  0.0000E+00  0.2200E+02
    -10.185  0.0000E+00  0.2200E+02
    -10.085  0.0000E+00  0.2200E+02
     -9.985  0.0000E+00  0.2200E+02
     -9.886  0.0000E+00  0.2200E+02
     -9.786  0.0000E+00  0.2200E+02
     -9.686  0.0000E+00  0.2200E+02
     -9.586  0.0000E+00  0.2200E+02
     -9.486  0.0000E+00  0.2200E+02
     -9.386  0.0000E+00  0.2200E+02
     -9.286  0.0000E+00  0.2200E+02
     -9.186  0.0000E+00  0.2200E+02
     -9.086  0.0000E+00  0.2200E+02
     -8.986  0.0000E+00  0.2200E+02
     -8.886  0.0000E+00  0.2200E+02
     -8.786  0.0000E+00  0.2400E+02
     -8.686  0.0000E+00  0.2400E+02
     -8.586  0.0000E+00  0.2600E+02
     -8.487  0.0000E+00  0.2600E+02
     -8.387  0.0000E+00  0.2600E+02
     -8.287  0.0000E+00  0.2800E+02
     -8.187  0.0000E+00  0.2800E+02
     -8.087  0.1002E+03  0.2958E+02
     -7.987  0.0000E+00  0.3000E+02
     -7.887  0.0000E+00  0.3000E+02
     -7.787  0.0000E+00  0.3200E+02
     -7.687  0.0000E+00  0.3200E+02
     -7.587  0.0000E+00  0.3200E+02
     -7.487  0.3934E+00  0.3400E+02
     -7.387  0.3110E+01  0.3418E+02
     -7.287  0.5826E+01  0.3462E+02
     -7.188  0.5976E+01  0.3534E+02
     -7.088  0.3285E+01  0.3580E+02
     -6.988  0.3677E+01  0.3606E+02
     -6.888  0.2371E+02  0.3686E+02
     -6.788  0.0000E+00  0.3800E+02
     -6.688  0.7489E+01  0.3830E+02
     -6.588  0.4525E+02  0.4001E+02
     -6.488  0.1342E+02  0.4137E+02
     -6.388  0.2814E+02  0.4248E+02
     -6.288  0.2898E+02  0.4546E+02
     -6.188  0.3114E+01  0.4740E+02
     -6.088  0.5953E+01  0.4781E+02
     -5.988  0.1239E+02  0.4873E+02
     -5.889  0.1567E+02  0.5023E+02
     -5.789  0.1291E+02  0.5300E+02
     -5.689  0.8462E+01  0.5659E+02
     -5.589  0.5922E+01  0.5731E+02
     -5.489  0.1792E+02  0.5890E+02
     -5.389  0.2914E+01  0.5994E+02
     -5.289  0.2027E+02  0.6088E+02
     -5.189  0.1385E+02  0.6283E+02
     -5.089  0.1717E+02  0.6422E+02
     -4.989  0.1025E+02  0.6556E+02
     -4.889  0.0000E+00  0.6600E+02
     -4.789  0.8400E+01  0.6741E+02
     -4.689  0.8001E+01  0.6822E+02
     -4.590  0.4992E+02  0.6995E+02
     -4.490  0.2409E+02  0.7218E+02
     -4.390  0.2373E+02  0.7487E+02
     -4.290  0.1551E+02  0.7623E+02
     -4.190  0.1609E+02  0.7800E+02
     -4.090  0.3437E+02  0.7944E+02
     -3.990  0.5038E+01  0.8041E+02
     -3.890  0.2144E+02  0.8158E+02
     -3.790  0.2404E+02  0.8389E+02
     -3.690  0.1253E+02  0.8491E+02
     -3.590  0.9322E+01  0.8664E+02
     -3.490  0.7399E+01  0.8742E+02
     -3.390  0.6642E+01  0.8811E+02
     -3.291  0.6799E+01  0.8878E+02
     -3.191  0.6956E+01  0.8947E+02
     -3.091  0.1860E+02  0.9192E+02
     -2.991  0.1699E+02  0.9382E+02
     -2.891  0.3300E+02  0.9678E+02
     -2.791  0.2225E+02  0.9977E+02
     -2.691  0.1010E+02  0.1013E+03
     -2.591  0.2252E+02  0.1029E+03
     -2.491  0.1727E+02  0.1043E+03
     -2.391  0.1974E+02  0.1069E+03
     -2.291  0.2700E+02  0.1085E+03
     -2.191  0.3840E+01  0.1093E+03
     -2.091  0.1125E+03  0.1101E+03
     -1.991  0.8881E+01  0.1115E+03
     -1.892  0.2293E+02  0.1131E+03
     -1.792  0.3122E+02  0.1160E+03
     -1.692  0.3047E+02  0.1190E+03
     -1.592  0.2381E+02  0.1219E+03
     -1.492  0.2110E+02  0.1242E+03
     -1.392  0.1835E+02  0.1262E+03
     -1.292  0.1195E+02  0.1276E+03
     -1.192  0.9931E+01  0.1287E+03
     -1.092  0.2641E+02  0.1300E+03
     -0.992  0.2801E+02  0.1324E+03
     -0.892  0.2024E+02  0.1351E+03
     -0.792  0.1060E+02  0.1369E+03
     -0.692  0.3672E+02  0.1400E+03
     -0.593  0.1402E+02  0.1429E+03
     -0.493  0.6042E+01  0.1445E+03
     -0.393  0.1225E+02  0.1454E+03
     -0.293  0.9007E+01  0.1471E+03
     -0.193  0.1973E+02  0.1483E+03
     -0.093  0.2069E+02  0.1503E+03
      0.007  0.4028E+02  0.1533E+03
      0.107  0.3891E+02  0.1552E+03
      0.207  0.5027E+02  0.1591E+03
      0.307  0.2983E+02  0.1609E+03
      0.407  0.5255E+02  0.1626E+03
      0.507  0.2381E+02  0.1652E+03
      0.607  0.2414E+02  0.1678E+03
      0.706  0.2572E+02  0.1699E+03
      0.806  0.2065E+02  0.1716E+03
      0.906  0.2244E+02  0.1746E+03
      1.006  0.2188E+02  0.1766E+03
      1.106  0.2037E+02  0.1791E+03
      1.206  0.6814E+02  0.1818E+03
      1.306  0.4129E+02  0.1861E+03
      1.406  0.3349E+02  0.1896E+03
      1.506  0.4967E+02  0.1934E+03
      1.606  0.4281E+02  0.1976E+03
      1.706  0.8200E+01  0.2001E+03
      1.806  0.6131E+01  0.2006E+03
      1.906  0.1182E+02  0.2019E+03
      2.005  0.6698E+01  0.2028E+03
      2.105  0.0000E+00  0.2040E+03
      2.205  0.0000E+00  0.2040E+03
      2.305  0.0000E+00  0.2040E+03
      2.405  0.0000E+00  0.2040E+03
      2.505  0.0000E+00  0.2040E+03
      2.605  0.0000E+00  0.2040E+03
      2.705  0.0000E+00  0.2040E+03
      2.805  0.0000E+00  0.2040E+03
      2.905  0.0000E+00  0.2040E+03
      3.005  0.0000E+00  0.2040E+03
      3.105  0.0000E+00  0.2040E+03
      3.205  0.0000E+00  0.2040E+03
      3.304  0.0000E+00  0.2040E+03
      3.404  0.0000E+00  0.2040E+03
      3.504  0.0000E+00  0.2040E+03
      3.604  0.0000E+00  0.2040E+03
      3.704  0.0000E+00  0.2040E+03
      3.804  0.0000E+00  0.2040E+03
      3.904  0.0000E+00  0.2040E+03
      4.004  0.0000E+00  0.2040E+03
      4.104  0.0000E+00  0.2040E+03
