       N       E                     dE             d eps       ncg     rms          rms(c)
RMM:   1     0.124290926231E+04    0.12429E+04   -0.27943E+04   510   0.785E+02
RMM:   2     0.544159188199E+03   -0.69875E+03   -0.75820E+03   510   0.166E+02
RMM:   3     0.309795503455E+03   -0.23436E+03   -0.29925E+03   510   0.833E+01
RMM:   4     0.138405668256E+03   -0.17139E+03   -0.14750E+03   510   0.789E+01
RMM:   5     0.226541882989E+02   -0.11575E+03   -0.91988E+02   510   0.640E+01
RMM:   6    -0.418217436729E+02   -0.64476E+02   -0.48912E+02   510   0.463E+01
RMM:   7    -0.700901415457E+02   -0.28268E+02   -0.21069E+02   510   0.274E+01
RMM:   8    -0.781188989733E+02   -0.80288E+01   -0.64920E+01   510   0.144E+01
RMM:   9    -0.804067299377E+02   -0.22878E+01   -0.21981E+01  1468   0.776E+00
RMM:  10    -0.806878543175E+02   -0.28112E+00   -0.30365E+00  1745   0.281E+00
RMM:  11    -0.806876418048E+02    0.21251E-03   -0.16252E-01  1696   0.703E-01
RMM:  12    -0.806904898360E+02   -0.28480E-02   -0.35826E-02  1807   0.297E-01    0.202E+01
RMM:  13    -0.708363376983E+02    0.98542E+01   -0.62639E+01  1409   0.145E+01    0.796E+00
RMM:  14    -0.968789331551E+02   -0.26043E+02   -0.13953E+01  1615   0.369E+00    0.108E+01
RMM:  15    -0.693285899042E+02    0.27550E+02   -0.32247E+00  1456   0.158E+00    0.495E+00
RMM:  16    -0.693188343124E+02    0.97556E-02   -0.13957E+00  1580   0.199E+00    0.250E+00
RMM:  17    -0.689911256195E+02    0.32771E+00   -0.42702E-01  1344   0.130E+00    0.839E-01
RMM:  18    -0.689690566738E+02    0.22069E-01   -0.93821E-02  1568   0.583E-01    0.358E-01
RMM:  19    -0.689676611751E+02    0.13955E-02   -0.30829E-02  1338   0.336E-01    0.235E-01
RMM:  20    -0.689669156468E+02    0.74553E-03   -0.10947E-02  1464   0.207E-01    0.826E-02
RMM:  21    -0.689622568132E+02    0.46588E-02   -0.26253E-03  1439   0.900E-02    0.527E-02
RMM:  22    -0.689578302727E+02    0.44265E-02   -0.49259E-04  1502   0.338E-02    0.380E-02
RMM:  23    -0.689541905800E+02    0.36397E-02   -0.40419E-04  1209   0.384E-02    0.163E-02
RMM:  24    -0.689556316842E+02   -0.14411E-02   -0.24744E-04  1126   0.346E-02    0.108E-02
RMM:  25    -0.689563335839E+02   -0.70190E-03   -0.24081E-04  1080   0.332E-02    0.611E-03
RMM:  26    -0.689561566257E+02    0.17696E-03   -0.29822E-04  1049   0.276E-02    0.341E-03
RMM:  27    -0.689561407011E+02    0.15925E-04   -0.12380E-04   955   0.150E-02    0.171E-03
RMM:  28    -0.689561665088E+02   -0.25808E-04   -0.47090E-05   865   0.102E-02    0.107E-03
RMM:  29    -0.689561795998E+02   -0.13091E-04   -0.46941E-05   854   0.948E-03    0.660E-04
RMM:  30    -0.689562035882E+02   -0.23988E-04   -0.12474E-05   800   0.618E-03    0.603E-04
RMM:  31    -0.689562474453E+02   -0.43857E-04   -0.10451E-05   760   0.548E-03    0.134E-03
RMM:  32    -0.689562425890E+02    0.48564E-05   -0.81967E-06   760   0.407E-03
   1 F= -.68956243E+02 E0= -.68956243E+02  d E =0.000000E+00
