 vasp.5.4.4.18Apr17-6-g9f103f2a35 (build Jun 08 2018 12:06:12) complex          
  
 executed on             LinuxIFC date 2019.06.06  07:30:48
 running on   72 total cores
 distrk:  each k-point on   72 cores,    1 groups
 distr:  one band on NCORES_PER_BAND=  24 cores,    3 groups


--------------------------------------------------------------------------------------------------------


 INCAR:
 POTCAR:    PAW_PBE Mg 13Apr2007                  
 POTCAR:    PAW_PBE O 08Apr2002                   
 POTCAR:    PAW_PBE H 15Jun2001                   

 ----------------------------------------------------------------------------- 
|                                                                             |
|           W    W    AA    RRRRR   N    N  II  N    N   GGGG   !!!           |
|           W    W   A  A   R    R  NN   N  II  NN   N  G    G  !!!           |
|           W    W  A    A  R    R  N N  N  II  N N  N  G       !!!           |
|           W WW W  AAAAAA  RRRRR   N  N N  II  N  N N  G  GGG   !            |
|           WW  WW  A    A  R   R   N   NN  II  N   NN  G    G                |
|           W    W  A    A  R    R  N    N  II  N    N   GGGG   !!!           |
|                                                                             |
|      For optimal performance we recommend to set                            |
|        NCORE= 4 - approx SQRT( number of cores)                             |
|      NCORE specifies how many cores store one orbital (NPAR=cpu/NCORE).     |
|      This setting can  greatly improve the performance of VASP for DFT.     |
|      The default,   NCORE=1            might be grossly inefficient         |
|      on modern multi-core architectures or massively parallel machines.     |
|      Do your own testing !!!!                                               |
|      Unfortunately you need to use the default for GW and RPA calculations. |
|      (for HF NCORE is supported but not extensively tested yet)             |
|                                                                             |
 ----------------------------------------------------------------------------- 


 ----------------------------------------------------------------------------- 
|                                                                             |
|  ADVICE TO THIS USER RUNNING 'VASP/VAMP'   (HEAR YOUR MASTER'S VOICE ...):  |
|                                                                             |
|      You have switched on vdW-DFT.                                          |
|      This routine was written and supplied by Jiri Klimes.                  |
|      We recommed that you carefully read and cite the following             |
|      publication                                                            |
|      J. Klimes, D.R. Bowler, A. Michelides                                  |
|        J. Phys.: Cond Matt. 22 022201 (2010)                                |
|      J. Klimes, D.R. Bowler, A. Michelides                                  |
|        Phys. Rev. B. 83, 195131 (2011)                                      |
|      and references therein.                                                |
|                                                                             |
 ----------------------------------------------------------------------------- 

 POTCAR:    PAW_PBE Mg 13Apr2007                  
   VRHFIN =Mg: s2p0                                                             
   LEXCH  = PE                                                                  
   EATOM  =    23.0369 eV,    1.6932 Ry                                         
                                                                                
   TITEL  = PAW_PBE Mg 13Apr2007                                                
   LULTRA =        F    use ultrasoft PP ?                                      
   IUNSCR =        1    unscreen: 0-lin 1-nonlin 2-no                           
   RPACOR =    1.500    partial core radius                                     
   POMASS =   24.305; ZVAL   =    2.000    mass and valenz                      
   RCORE  =    2.000    outmost cutoff radius                                   
   RWIGS  =    2.880; RWIGS  =    1.524    wigner-seitz radius (au A)           
   ENMAX  =  200.000; ENMIN  =  100.000 eV                                      
   RCLOC  =    1.506    cutoff for local pot                                    
   LCOR   =        T    correct aug charges                                     
   LPAW   =        T    paw PP                                                  
   EAUG   =  454.734                                                            
   DEXC   =    0.000                                                            
   RMAX   =    2.045    core radius for proj-oper                               
   RAUG   =    1.300    factor for augmentation sphere                          
   RDEP   =    2.025    radius for radial grids                                 
   RDEPT  =    1.942    core radius for aug-charge                              
                                                                                
   Atomic configuration                                                         
    6 entries                                                                   
     n  l   j            E        occ.                                          
     1  0  0.50     -1259.6230   2.0000                                         
     2  0  0.50       -79.8442   2.0000                                         
     2  1  1.50       -46.6121   6.0000                                         
     3  0  0.50        -4.7055   2.0000                                         
     3  1  0.50        -1.3660   0.0000                                         
     3  2  1.50        -1.3606   0.0000                                         
   Description                                                                  
     l       E           TYP  RCUT    TYP  RCUT                                 
     0     -4.7054661     23  2.000                                             
     0     27.2116520     23  2.000                                             
     1      1.3605826     23  2.000                                             
     1     27.2116520     23  2.000                                             
     2     -1.3605826     23  2.000                                             
  local pseudopotential read in
  partial core-charges read in
  partial kinetic energy density read in
  atomic valenz-charges read in
  non local Contribution for L=           0  read in
    real space projection operators read in
  non local Contribution for L=           0  read in
    real space projection operators read in
  non local Contribution for L=           1  read in
    real space projection operators read in
  non local Contribution for L=           1  read in
    real space projection operators read in
  non local Contribution for L=           2  read in
    real space projection operators read in
    PAW grid and wavefunctions read in
 
   number of l-projection  operators is LMAX  =           5
   number of lm-projection operators is LMMAX =          13
 
 POTCAR:    PAW_PBE O 08Apr2002                   
   VRHFIN =O: s2p4                                                              
   LEXCH  = PE                                                                  
   EATOM  =   432.3788 eV,   31.7789 Ry                                         
                                                                                
   TITEL  = PAW_PBE O 08Apr2002                                                 
   LULTRA =        F    use ultrasoft PP ?                                      
   IUNSCR =        1    unscreen: 0-lin 1-nonlin 2-no                           
   RPACOR =    1.200    partial core radius                                     
   POMASS =   16.000; ZVAL   =    6.000    mass and valenz                      
   RCORE  =    1.520    outmost cutoff radius                                   
   RWIGS  =    1.550; RWIGS  =    0.820    wigner-seitz radius (au A)           
   ENMAX  =  400.000; ENMIN  =  300.000 eV                                      
   ICORE  =        2    local potential                                         
   LCOR   =        T    correct aug charges                                     
   LPAW   =        T    paw PP                                                  
   EAUG   =  605.392                                                            
   DEXC   =    0.000                                                            
   RMAX   =    1.553    core radius for proj-oper                               
   RAUG   =    1.300    factor for augmentation sphere                          
   RDEP   =    1.550    radius for radial grids                                 
   RDEPT  =    1.329    core radius for aug-charge                              
                                                                                
   Atomic configuration                                                         
    4 entries                                                                   
     n  l   j            E        occ.                                          
     1  0  0.50      -514.6923   2.0000                                         
     2  0  0.50       -23.9615   2.0000                                         
     2  1  0.50        -9.0305   4.0000                                         
     3  2  1.50        -9.5241   0.0000                                         
   Description                                                                  
     l       E           TYP  RCUT    TYP  RCUT                                 
     0    -23.9615318     23  1.200                                             
     0     -9.5240782     23  1.200                                             
     1     -9.0304911     23  1.520                                             
     1      8.1634956     23  1.520                                             
     2     -9.5240782      7  1.500                                             
  local pseudopotential read in
  partial core-charges read in
  partial kinetic energy density read in
  kinetic energy density of atom read in
  atomic valenz-charges read in
  non local Contribution for L=           0  read in
    real space projection operators read in
  non local Contribution for L=           0  read in
    real space projection operators read in
  non local Contribution for L=           1  read in
    real space projection operators read in
  non local Contribution for L=           1  read in
    real space projection operators read in
    PAW grid and wavefunctions read in
 
   number of l-projection  operators is LMAX  =           4
   number of lm-projection operators is LMMAX =           8
 
 POTCAR:    PAW_PBE H 15Jun2001                   
   VRHFIN =H: ultrasoft test                                                    
   LEXCH  = PE                                                                  
   EATOM  =    12.4884 eV,    0.9179 Ry                                         
                                                                                
   TITEL  = PAW_PBE H 15Jun2001                                                 
   LULTRA =        F    use ultrasoft PP ?                                      
   IUNSCR =        0    unscreen: 0-lin 1-nonlin 2-no                           
   RPACOR =    0.000    partial core radius                                     
   POMASS =    1.000; ZVAL   =    1.000    mass and valenz                      
   RCORE  =    1.100    outmost cutoff radius                                   
   RWIGS  =    0.700; RWIGS  =    0.370    wigner-seitz radius (au A)           
   ENMAX  =  250.000; ENMIN  =  200.000 eV                                      
   RCLOC  =    0.701    cutoff for local pot                                    
   LCOR   =        T    correct aug charges                                     
   LPAW   =        T    paw PP                                                  
   EAUG   =  400.000                                                            
   RMAX   =    1.123    core radius for proj-oper                               
   RAUG   =    1.200    factor for augmentation sphere                          
   RDEP   =    1.112    radius for radial grids                                 
   RDEPT  =    0.926    core radius for aug-charge                              
                                                                                
   Atomic configuration                                                         
    2 entries                                                                   
     n  l   j            E        occ.                                          
     1  0  0.50        -6.4927   1.0000                                         
     2  1  0.50        -3.4015   0.0000                                         
   Description                                                                  
     l       E           TYP  RCUT    TYP  RCUT                                 
     0     -6.4927494     23  1.100                                             
     0      6.8029130     23  1.100                                             
     1     -4.0817478     23  1.100                                             
  local pseudopotential read in
  atomic valenz-charges read in
  non local Contribution for L=           0  read in
    real space projection operators read in
  non local Contribution for L=           0  read in
    real space projection operators read in
  non local Contribution for L=           1  read in
    real space projection operators read in
    PAW grid and wavefunctions read in
 
   number of l-projection  operators is LMAX  =           3
   number of lm-projection operators is LMMAX =           5
 
 Optimization of the real space projectors (new method)

 maximal supplied QI-value         = 18.90
 optimisation between [QCUT,QGAM] = [ 11.53, 23.24] = [ 37.21,151.29] Ry 
 Optimized for a Real-space Cutoff    1.28 Angstroem

   l    n(q)    QCUT    max X(q) W(low)/X(q) W(high)/X(q)  e(spline) 
   0      9    11.527    28.265    0.62E-04    0.53E-04    0.73E-07
   0      9    11.527    10.429    0.52E-04    0.40E-04    0.58E-07
   1      8    11.527    13.073    0.98E-04    0.18E-03    0.86E-07
   1      8    11.527     9.625    0.79E-04    0.15E-03    0.74E-07
   2      8    11.527     4.652    0.22E-03    0.72E-04    0.47E-07
 Optimization of the real space projectors (new method)

 maximal supplied QI-value         = 24.76
 optimisation between [QCUT,QGAM] = [ 11.64, 23.27] = [ 37.91,151.63] Ry 
 Optimized for a Real-space Cutoff    1.14 Angstroem

   l    n(q)    QCUT    max X(q) W(low)/X(q) W(high)/X(q)  e(spline) 
   0      8    11.635    20.381    0.10E-03    0.33E-03    0.24E-06
   0      8    11.635    15.268    0.11E-03    0.35E-03    0.26E-06
   1      7    11.635     5.964    0.24E-03    0.31E-03    0.30E-06
   1      7    11.635     5.382    0.22E-03    0.25E-03    0.26E-06
 Optimization of the real space projectors (new method)

 maximal supplied QI-value         = 34.20
 optimisation between [QCUT,QGAM] = [ 11.63, 23.26] = [ 37.87,151.49] Ry 
 Optimized for a Real-space Cutoff    1.21 Angstroem

   l    n(q)    QCUT    max X(q) W(low)/X(q) W(high)/X(q)  e(spline) 
   0      8    11.629    19.460    0.17E-03    0.34E-03    0.21E-06
   0      8    11.629    12.209    0.16E-03    0.33E-03    0.21E-06
   1      8    11.629     4.655    0.18E-03    0.16E-03    0.26E-06

 ----------------------------------------------------------------------------- 
|                                                                             |
|  ADVICE TO THIS USER RUNNING 'VASP/VAMP'   (HEAR YOUR MASTER'S VOICE ...):  |
|                                                                             |
|      You enforced a specific xc-type in the INCAR file,                     |
|      a different type was found on the POTCAR file                          |
|          I HOPE YOU KNOW, WHAT YOU ARE  DOING                               |
|                                                                             |
 ----------------------------------------------------------------------------- 

  PAW_PBE Mg 13Apr2007                  :
 energy of atom  1       EATOM=  -23.0369
 kinetic energy error for atom=    0.0000 (will be added to EATOM!!)
  PAW_PBE O 08Apr2002                   :
 energy of atom  2       EATOM= -432.3788
 kinetic energy error for atom=    0.0208 (will be added to EATOM!!)
  PAW_PBE H 15Jun2001                   :
 energy of atom  3       EATOM=  -12.4884
 kinetic energy error for atom=    0.0014 (will be added to EATOM!!)
 
 
 POSCAR: Mg   O    H                             
  positions in direct lattice
  velocities in cartesian coordinates
 exchange correlation table for  LEXCH =       42
   RHO(1)=    0.500       N(1)  =     2000
   RHO(2)=  100.500       N(2)  =     4000

 VTST: version 3.2, (02/03/18)

 CHAIN: initializing optimizer
 
 OPT: Using VASP Dynamics algorithm
 CHAIN: Read ICHAIN            0
 
 POSCAR: Mg   O    H                             
  positions in direct lattice
  velocities in cartesian coordinates
 


--------------------------------------------------------------------------------------------------------


 ion  position               nearest neighbor table
   1  0.000  0.000  0.000-   7 3.19  25 3.19  19 3.19  10 3.19   4 3.19  13 3.19  44 3.19  32 3.19
                            28 3.19
   2  0.999  1.000  0.158-  33 3.09  29 3.13  44 3.15  28 3.15  32 3.16  26 3.16  20 3.17  14 3.18
                             8 3.18   5 3.19  11 3.19  45 3.23
   3  0.003  0.005  0.331-  46 2.14  15 3.12  12 3.20  21 3.22   9 3.22  27 3.24   6 3.28  45 3.50
                            29 3.55  33 3.62
   4  0.000  0.333  0.000-  22 3.19  13 3.19  19 3.19  16 3.19   1 3.19   7 3.19  40 3.19  30 3.19
                            28 3.19
   5  0.000  0.334  0.158-  30 3.13  40 3.13  28 3.13  41 3.15  29 3.15  31 3.17  14 3.18  17 3.18
                             8 3.19   2 3.19  23 3.19  20 3.20
   6  0.992  0.336  0.312-  31 3.08  41 3.09  21 3.12  24 3.13  29 3.13   9 3.17  15 3.19  18 3.27
                             3 3.28
   7  0.000  0.667  0.000-   1 3.19  10 3.19  25 3.19  16 3.19  22 3.19   4 3.19  42 3.19  32 3.19
                            30 3.19
   8  0.999  0.667  0.158-  33 3.11  42 3.14  32 3.14  30 3.15  26 3.15  23 3.17  31 3.17   2 3.18
                            17 3.18   5 3.19  11 3.19  43 3.30
   9  0.008  0.675  0.314-  18 3.06  43 3.06  12 3.11  33 3.13  31 3.13   6 3.17   3 3.22  27 3.27
                            24 3.41
  10  0.333  0.000  0.000-  16 3.19   7 3.19  19 3.19   1 3.19  22 3.19  13 3.19  32 3.19  34 3.19
                            38 3.19
  11  0.333  1.000  0.157-  32 3.12  38 3.12  34 3.13  33 3.14  17 3.17  35 3.18  14 3.18   8 3.19
                            20 3.19   2 3.19  39 3.19  23 3.20
  12  0.329  0.003  0.309-  35 3.02  33 3.03  39 3.04   9 3.11  15 3.14  24 3.15  18 3.17   3 3.20
                            21 3.27
  13  0.333  0.333  0.000-  22 3.19   4 3.19  10 3.19   1 3.19  25 3.19  16 3.19  28 3.19  36 3.19
                            34 3.19
  14  0.332  0.332  0.157-  28 3.11  34 3.12  36 3.13  37 3.13  35 3.14   2 3.18   5 3.18  11 3.18
                            23 3.19  29 3.19  17 3.21  26 3.22
  15  0.321  0.327  0.312-  61 1.92  29 3.04  35 3.10   3 3.12  12 3.14  37 3.16   6 3.19  27 3.29
                            24 3.33  18 3.38
  16  0.333  0.667  0.000-  10 3.19  19 3.19   7 3.19  25 3.19   4 3.19  13 3.19  38 3.19  30 3.19
                            36 3.19
  17  0.332  0.668  0.158-  37 3.10  31 3.13  39 3.13  30 3.14  38 3.14  36 3.15  11 3.17  20 3.18
                             5 3.18   8 3.18  14 3.21  26 3.22
  18  0.324  0.677  0.330-  61 1.92  51 2.13   9 3.06  12 3.17   6 3.27  21 3.27  27 3.30  15 3.38
                            39 3.49  31 3.50
  19  0.667  0.000  0.000-  25 3.19  16 3.19   1 3.19  10 3.19   4 3.19  22 3.19  38 3.19  44 3.19
                            40 3.19
  20  0.666  0.999  0.158-  41 3.13  44 3.13  38 3.14  40 3.14  39 3.16   2 3.17  17 3.18  26 3.18
                            11 3.19   5 3.20  23 3.21  45 3.27
  21  0.671  0.004  0.313-  45 3.05  24 3.08  41 3.12   6 3.12  39 3.14  27 3.21   3 3.22  12 3.27
                            18 3.27
  22  0.667  0.333  0.000-  13 3.19   4 3.19  10 3.19  25 3.19   7 3.19  19 3.19  34 3.19  42 3.19
                            40 3.19
  23  0.667  0.335  0.159-  41 3.09  35 3.10  42 3.16  26 3.16  34 3.17   8 3.17  40 3.18  14 3.19
                             5 3.19  11 3.20  20 3.21  43 3.23
  24  0.660  0.317  0.328-  49 2.12  21 3.08   6 3.13  12 3.15  27 3.33  15 3.33   9 3.41  43 3.43
                            41 3.49  35 3.50
  25  0.667  0.667  0.000-   1 3.19  19 3.19   7 3.19  16 3.19  22 3.19  13 3.19  36 3.19  42 3.19
                            44 3.19
  26  0.669  0.667  0.159-  37 3.08  42 3.15   8 3.15  44 3.15  23 3.16   2 3.16  36 3.17  20 3.18
                            45 3.20  14 3.22  17 3.22  43 3.26
  27  0.664  0.667  0.325-  61 1.96  50 1.99  21 3.21   3 3.24   9 3.27  15 3.29  43 3.29  45 3.30
                            18 3.30  24 3.33  37 3.46
  28  0.111  0.222  0.080-  14 3.11   5 3.13   2 3.15  44 3.19  32 3.19  40 3.19  34 3.19  36 3.19
                            30 3.19   1 3.19  13 3.19   4 3.19
  29  0.106  0.219  0.236-  15 3.04   2 3.13   6 3.13   5 3.15  33 3.16  45 3.17  41 3.18  14 3.19
                            31 3.19  35 3.21  37 3.23   3 3.55
  30  0.111  0.556  0.080-   5 3.13  17 3.14   8 3.15  32 3.19  42 3.19  38 3.19  40 3.19  36 3.19
                            28 3.19  16 3.19   7 3.19   4 3.19
  31  0.116  0.558  0.236-   6 3.08  39 3.12  17 3.13   9 3.13  37 3.16   8 3.17   5 3.17  29 3.19
                            33 3.20  41 3.24  43 3.25  18 3.50
  32  0.111  0.889  0.080-  11 3.12   8 3.14   2 3.16  28 3.19  34 3.19  44 3.19  30 3.19  42 3.19
                            38 3.19  10 3.19   1 3.19   7 3.19
  33  0.108  0.889  0.235-  12 3.03   2 3.09   8 3.11  45 3.13   9 3.13  11 3.14  29 3.16  31 3.20
                            43 3.23  35 3.23  39 3.24   3 3.62
  34  0.444  0.222  0.080-  14 3.12  11 3.13  23 3.17  38 3.19  40 3.19  32 3.19  42 3.19  28 3.19
                            36 3.19  22 3.19  10 3.19  13 3.19
  35  0.446  0.227  0.236-  12 3.02  23 3.10  15 3.10  43 3.11  14 3.14  37 3.15  41 3.16  11 3.18
                            29 3.21  33 3.23  39 3.27  24 3.50
  36  0.444  0.556  0.080-  14 3.13  17 3.15  26 3.17  42 3.19  38 3.19  44 3.19  30 3.19  28 3.19
                            34 3.19  25 3.19  13 3.19  16 3.19
  37  0.445  0.556  0.234-  26 3.08  17 3.10  14 3.13  39 3.14  35 3.15  43 3.16  31 3.16  45 3.16
                            15 3.16  29 3.23  27 3.46
  38  0.444  0.889  0.080-  11 3.12  20 3.14  17 3.14  40 3.19  34 3.19  44 3.19  36 3.19  30 3.19
                            32 3.19  19 3.19  16 3.19  10 3.19
  39  0.444  0.884  0.237-  12 3.04  31 3.12  17 3.13  21 3.14  37 3.14  20 3.16  41 3.19  11 3.19
                            45 3.20  33 3.24  35 3.27  18 3.49
  40  0.778  0.222  0.080-   5 3.13  20 3.14  23 3.18  38 3.19  34 3.19  44 3.19  28 3.19  30 3.19
                            42 3.19   4 3.19  19 3.19  22 3.19
  41  0.774  0.221  0.235-   6 3.09  23 3.09  21 3.12  20 3.13   5 3.15  35 3.16  43 3.17  29 3.18
                            39 3.19  31 3.24  45 3.25  24 3.49
  42  0.778  0.556  0.080-   8 3.14  26 3.15  23 3.16  36 3.19  44 3.19  30 3.19  32 3.19  34 3.19
                            40 3.19  25 3.19   7 3.19  22 3.19
  43  0.772  0.551  0.241-   9 3.06  35 3.11  45 3.15  37 3.16  41 3.17  33 3.23  23 3.23  31 3.25
                            26 3.26  27 3.29   8 3.30  24 3.43
  44  0.778  0.889  0.080-  20 3.13   2 3.15  26 3.15  28 3.19  40 3.19  42 3.19  32 3.19  38 3.19
                            36 3.19   1 3.19  19 3.19  25 3.19
  45  0.778  0.884  0.240-  21 3.05  33 3.13  43 3.15  37 3.16  29 3.17  39 3.20  26 3.20   2 3.23
                            41 3.25  20 3.27  27 3.30   3 3.50
  46  0.003  0.000  0.396-  53 0.98  52 0.99   3 2.14
  47  0.304  0.972  0.412-  54 0.99  55 1.00
  48  0.889  0.215  0.416-  56 0.98  57 1.00
  49  0.614  0.306  0.392-  59 0.98  58 1.07  24 2.12
  50  0.673  0.591  0.381-  60 0.98  27 1.99
  51  0.363  0.707  0.394-  63 0.98  62 0.99  18 2.13
  52  0.970  0.072  0.410-  46 0.99
  53  0.097  0.008  0.410-  46 0.98
  54  0.399  0.081  0.409-  47 0.99
  55  0.261  0.941  0.384-  47 1.00
  56  0.984  0.324  0.418-  48 0.98
  57  0.861  0.204  0.386-  48 1.00
  58  0.637  0.427  0.393-  49 1.07
  59  0.693  0.298  0.409-  49 0.98
  60  0.775  0.666  0.394-  50 0.98
  61  0.428  0.549  0.329-  18 1.92  15 1.92  27 1.96
  62  0.361  0.801  0.407-  51 0.99
  63  0.457  0.703  0.405-  51 0.98
 
  LATTYP: Found a hexagonal cell.
 ALAT       =     9.5557527542
 C/A-ratio  =     3.4141837076
  
  Lattice vectors:
  
 A1 = (   9.5557527542,   0.0000000000,   0.0000000000)
 A2 = (  -4.7778763771,   8.2755246374,   0.0000000000)
 A3 = (   0.0000000000,   0.0000000000,  32.6250953674)


Analysis of symmetry for initial positions (statically):
=====================================================================
 Subroutine PRICEL returns:
 Original cell was already a primitive cell.
 

 Routine SETGRP: Setting up the symmetry group for a 
 hexagonal supercell.


 Subroutine GETGRP returns: Found  1 space group operations
 (whereof  1 operations were pure point group operations)
 out of a pool of 24 trial point group operations.


The static configuration has the point symmetry C_1 .


Analysis of symmetry for dynamics (positions and initial velocities):
=====================================================================
 Subroutine PRICEL returns:
 Original cell was already a primitive cell.
 

 Routine SETGRP: Setting up the symmetry group for a 
 hexagonal supercell.


 Subroutine GETGRP returns: Found  1 space group operations
 (whereof  1 operations were pure point group operations)
 out of a pool of 24 trial point group operations.


The dynamic configuration has the point symmetry C_1 .


Analysis of constrained symmetry for selective dynamics:
=====================================================================
 Subroutine PRICEL returns:
 Original cell was already a primitive cell.
 

 Routine SETGRP: Setting up the symmetry group for a 
 hexagonal supercell.


 Subroutine GETGRP returns: Found  1 space group operations
 (whereof  1 operations were pure point group operations)
 out of a pool of 24 trial point group operations.


The constrained configuration has the point symmetry C_1 .


 Subroutine INISYM returns: Found  1 space group operations
 (whereof  1 operations are pure point group operations),
 and found     1 'primitive' translations

 
 
 KPOINTS: Auto                                    

Automatic generation of k-mesh.
Space group operators:
 irot       det(A)        alpha          n_x          n_y          n_z        tau_x        tau_y        tau_z
    1     1.000000     0.000000     1.000000     0.000000     0.000000     0.000000     0.000000     0.000000
 
 Subroutine IBZKPT returns following result:
 ===========================================
 
 Found      5 irreducible k-points:
 
 Following reciprocal coordinates:
            Coordinates               Weight
  0.000000  0.000000  0.000000      1.000000
  0.333333 -0.000000  0.000000      2.000000
  0.000000  0.333333  0.000000      2.000000
  0.333333  0.333333  0.000000      2.000000
 -0.333333  0.333333  0.000000      2.000000
 
 Following cartesian coordinates:
            Coordinates               Weight
  0.000000  0.000000  0.000000      1.000000
  0.034883  0.020140  0.000000      2.000000
  0.000000  0.040279  0.000000      2.000000
  0.034883  0.060419  0.000000      2.000000
 -0.034883  0.020140  0.000000      2.000000
 
 TETIRR: Found     24 inequivalent tetrahedra from       54


--------------------------------------------------------------------------------------------------------




 Dimension of arrays:
   k-points           NKPTS =      5   k-points in BZ     NKDIM =      5   number of bands    NBANDS=    102
   number of dos      NEDOS =    301   number of ions     NIONS =     63
   non local maximal  LDIM  =      5   non local SUM 2l+1 LMDIM =     13
   total plane-waves  NPLWV = ******
   max r-space proj   IRMAX =   4509   max aug-charges    IRDMAX=  21536
   dimension x,y,z NGX =    72 NGY =   72 NGZ =  250
   dimension x,y,z NGXF=   144 NGYF=  144 NGZF=  500
   support grid    NGXF=   144 NGYF=  144 NGZF=  500
   ions per type =              45   6  12
   NGX,Y,Z   is equivalent  to a cutoff of  12.53, 12.53, 12.74 a.u.
   NGXF,Y,Z  is equivalent  to a cutoff of  25.05, 25.05, 25.48 a.u.

 SYSTEM =  Mg_slab_in_a_box                        
 POSCAR =  Mg   O    H                             

 Startparameter for this run:
   NWRITE =      2    write-flag & timer
   PREC   = accura    normal or accurate (medium, high low for compatibility)
   ISTART =      0    job   : 0-new  1-cont  2-samecut
   ICHARG =      2    charge: 1-file 2-atom 10-const
   ISPIN  =      1    spin polarized calculation?
   LNONCOLLINEAR =      F non collinear calculations
   LSORBIT =      F    spin-orbit coupling
   INIWAV =      1    electr: 0-lowe 1-rand  2-diag
   LASPH  =      T    aspherical Exc in radial PAW
   METAGGA=      F    non-selfconsistent MetaGGA calc.

 Electronic Relaxation 1
   ENCUT  =  520.0 eV  38.22 Ry    6.18 a.u.  17.77 17.77 60.66*2*pi/ulx,y,z
   ENINI  =  520.0     initial cutoff
   ENAUG  =  605.4 eV  augmentation charge cutoff
   NELM   =    300;   NELMIN=  6; NELMDL=-12     # of ELM steps 
   EDIFF  = 0.5E-05   stopping-criterion for ELM
   LREAL  =      T    real-space projection
   NLSPLINE    = F    spline interpolate recip. space projectors
   LCOMPAT=      F    compatible to vasp.4.4
   GGA_COMPAT  = T    GGA compatible to vasp.4.4-vasp.4.6
   LMAXPAW     = -100 max onsite density
   LMAXMIX     =    2 max onsite mixed and CHGCAR
   VOSKOWN=      0    Vosko Wilk Nusair interpolation
   ROPT   =   -0.00025  -0.00025  -0.00025
 Ionic relaxation
   EDIFFG = 0.5E-04   stopping-criterion for IOM
   NSW    =      0    number of steps for IOM
   NBLOCK =      1;   KBLOCK =      1    inner block; outer block 
   IBRION =     -1    ionic relax: 0-MD 1-quasi-New 2-CG
   NFREE  =      0    steps in history (QN), initial steepest desc. (CG)
   ISIF   =      2    stress and relaxation
   IWAVPR =     10    prediction:  0-non 1-charg 2-wave 3-comb
   ISYM   =      2    0-nonsym 1-usesym 2-fastsym
   LCORR  =      T    Harris-Foulkes like correction to forces

   POTIM  = 0.5000    time-step for ionic-motion
   TEIN   =    0.0    initial temperature
   TEBEG  =    0.0;   TEEND  =   0.0 temperature during run
   SMASS  =  -3.00    Nose mass-parameter (am)
   estimated Nose-frequenzy (Omega)   =  0.10E-29 period in steps =****** mass=  -0.209E-26a.u.
   SCALEE = 1.0000    scale energy and forces
   NPACO  =    256;   APACO  = 16.0  distance and # of slots for P.C.
   PSTRESS=    0.0 pullay stress

  Mass of Ions in am
   POMASS =  24.30 16.00  1.00
  Ionic Valenz
   ZVAL   =   2.00  6.00  1.00
  Atomic Wigner-Seitz radii
   RWIGS  =  -1.00 -1.00 -1.00
  virtual crystal weights 
   VCA    =   1.00  1.00  1.00
   NELECT =     138.0000    total number of electrons
   NUPDOWN=      -1.0000    fix difference up-down

 DOS related values:
   EMIN   =  10.00;   EMAX   =-10.00  energy-range for DOS
   EFERMI =   0.00
   ISMEAR =    -5;   SIGMA  =   0.20  broadening in eV -4-tet -1-fermi 0-gaus

 Electronic relaxation 2 (details)
   IALGO  =     48    algorithm
   LDIAG  =      T    sub-space diagonalisation (order eigenvalues)
   LSUBROT=      F    optimize rotation matrix (better conditioning)
   TURBO    =      0    0=normal 1=particle mesh
   IRESTART =      0    0=no restart 2=restart with 2 vectors
   NREBOOT  =      0    no. of reboots
   NMIN     =      0    reboot dimension
   EREF     =   0.00    reference energy to select bands
   IMIX   =      4    mixing-type and parameters
     AMIX     =   0.40;   BMIX     =  1.00
     AMIX_MAG =   1.60;   BMIX_MAG =  1.00
     AMIN     =   0.10
     WC   =   100.;   INIMIX=   1;  MIXPRE=   1;  MAXMIX= -45

 Intra band minimization:
   WEIMIN = 0.0000     energy-eigenvalue tresh-hold
   EBREAK =  0.12E-07  absolut break condition
   DEPER  =   0.30     relativ break condition  

   TIME   =   0.40     timestep for ELM

  volume/ion in A,a.u.               =      40.95       276.36
  Fermi-wavevector in a.u.,A,eV,Ry     =   0.616828  1.165635  5.176694  0.380476
  Thomas-Fermi vector in A             =   1.674695
 
 Write flags
   LWAVE        =      F    write WAVECAR
   LDOWNSAMPLE  =      F    k-point downsampling of WAVECAR
   LCHARG       =      T    write CHGCAR
   LVTOT        =      F    write LOCPOT, total local potential
   LVHAR        =      T    write LOCPOT, Hartree potential only
   LELF         =      F    write electronic localiz. function (ELF)
   LORBIT       =      0    0 simple, 1 ext, 2 COOP (PROOUT), +10 PAW based schemes


 Dipole corrections
   LMONO  =      F    monopole corrections only (constant potential shift)
   LDIPOL =      T    correct potential (dipole corrections)
   IDIPOL =      3    1-x, 2-y, 3-z, 4-all directions 
   EPSILON=  1.0000000 bulk dielectric constant

 Exchange correlation treatment:
   GGA     =    BO    GGA type
   LEXCH   =    42    internal setting for exchange type
   VOSKOWN=      0    Vosko Wilk Nusair interpolation
   LHFCALC =     F    Hartree Fock is set to
   LHFONE  =     F    Hartree Fock one center treatment
   AEXX    =    0.0000 exact exchange contribution

 vdW DFT:
   LUSE_VDW   =     T    switch on vdW DFT
   Zab_VDW    =-.8491    correlation parameter
   PARAM1     =0.1833
   PARAM2     =0.2200
   PARAM3     =0.0000
   -- rVV10 --
   BPARAM     = 6.3000
   CPARAM     = 0.0093

 Linear response parameters
   LEPSILON=     F    determine dielectric tensor
   LRPA    =     F    only Hartree local field effects (RPA)
   LNABLA  =     F    use nabla operator in PAW spheres
   LVEL    =     F    velocity operator in full k-point grid
   LINTERFAST=   F  fast interpolation
   KINTER  =     0    interpolate to denser k-point grid
   CSHIFT  =0.1000    complex shift for real part using Kramers Kronig
   OMEGAMAX=  -1.0    maximum frequency
   DEG_THRESHOLD= 0.2000000E-02 threshold for treating states as degnerate
   RTIME   =   -0.100 relaxation time in fs
  (WPLASMAI=    0.000 imaginary part of plasma frequency in eV, 0.658/RTIME)
   DFIELD  = 0.0000000 0.0000000 0.0000000 field for delta impulse in time
 
 Orbital magnetization related:
   ORBITALMAG=     F  switch on orbital magnetization
   LCHIMAG   =     F  perturbation theory with respect to B field
   DQ        =  0.001000  dq finite difference perturbation B field
   LLRAUG    =     F  two centre corrections for induced B field



--------------------------------------------------------------------------------------------------------


 Static calculation
 charge density and potential will be updated during run
 non-spin polarized calculation
 RMM-DIIS sequential band-by-band
 perform sub-space diagonalisation
    before iterative eigenvector-optimisation
 modified Broyden-mixing scheme, WC =      100.0
 initial mixing is a Kerker type mixing with AMIX =  0.4000 and BMIX =      1.0000
 Hartree-type preconditioning will be used
 using additional bands           33
 real space projection scheme for non local part
 use partial core corrections
 calculate Harris-corrections to forces 
   (improved forces if not selfconsistent)
 use gradient corrections 
 use of overlap-Matrix (Vanderbilt PP)
 Fermi weights with tetrahedron method with Bloechl corrections


--------------------------------------------------------------------------------------------------------


  energy-cutoff  :      520.00
  volume of cell :     2579.96
      direct lattice vectors                 reciprocal lattice vectors
     9.555752754  0.000000000  0.000000000     0.104649003  0.060419130  0.000000000
    -4.777876377  8.275524637  0.000000000     0.000000000  0.120838260  0.000000000
     0.000000000  0.000000000 32.625095367     0.000000000  0.000000000  0.030651251

  length of vectors
     9.555752754  9.555752754 32.625095367     0.120838260  0.120838260  0.030651251


 
 k-points in units of 2pi/SCALE and weight: Auto                                    
   0.00000000  0.00000000  0.00000000       0.111
   0.03488300  0.02013971  0.00000000       0.222
   0.00000000  0.04027942  0.00000000       0.222
   0.03488300  0.06041913  0.00000000       0.222
  -0.03488300  0.02013971  0.00000000       0.222
 
 k-points in reciprocal lattice and weights: Auto                                    
   0.00000000  0.00000000  0.00000000       0.111
   0.33333333 -0.00000000  0.00000000       0.222
   0.00000000  0.33333333  0.00000000       0.222
   0.33333333  0.33333333  0.00000000       0.222
  -0.33333333  0.33333333  0.00000000       0.222
 
 position of ions in fractional coordinates (direct lattice) 
   0.00000000  0.00000000  0.00000000
   0.99884765  0.99973328  0.15825798
   0.00329711  0.00471036  0.33056660
   0.00000001  0.33333336  0.00000000
   0.00016432  0.33397435  0.15754704
   0.99186854  0.33594467  0.31211225
   0.00000002  0.66666672  0.00000000
   0.99879991  0.66675160  0.15792855
   0.00779726  0.67493107  0.31372178
   0.33333334  0.00000000  0.00000000
   0.33304721  0.99969313  0.15722396
   0.32884725  0.00296750  0.30856875
   0.33333335  0.33333336  0.00000000
   0.33163938  0.33171625  0.15697304
   0.32105632  0.32692761  0.31168298
   0.33333336  0.66666672  0.00000000
   0.33226517  0.66764310  0.15791338
   0.32402994  0.67672462  0.32970821
   0.66666668  0.00000000  0.00000000
   0.66621746  0.99877891  0.15777888
   0.67133581  0.00434057  0.31334853
   0.66666668  0.33333336  0.00000000
   0.66680845  0.33522407  0.15884321
   0.66023370  0.31671279  0.32815417
   0.66666670  0.66666672  0.00000000
   0.66908390  0.66728197  0.15850436
   0.66391856  0.66710983  0.32464941
   0.11111113  0.22222222  0.07982145
   0.10607424  0.21929074  0.23623316
   0.11111114  0.55555561  0.07982145
   0.11572101  0.55818172  0.23648485
   0.11111116  0.88888894  0.07982145
   0.10788018  0.88919755  0.23467749
   0.44444450  0.22222222  0.07982145
   0.44638883  0.22728955  0.23566818
   0.44444450  0.55555561  0.07982145
   0.44535074  0.55631083  0.23411473
   0.44444451  0.88888894  0.07982145
   0.44375346  0.88400769  0.23653025
   0.77777779  0.22222222  0.07982145
   0.77416444  0.22096285  0.23522648
   0.77777781  0.55555561  0.07982145
   0.77231878  0.55084897  0.24127838
   0.77777784  0.88888894  0.07982145
   0.77843798  0.88384679  0.23986060
   0.00286479  0.00004012  0.39611457
   0.30350586  0.97248441  0.41227547
   0.88910104  0.21530283  0.41599879
   0.61411218  0.30597257  0.39206451
   0.67325361  0.59145987  0.38073291
   0.36287689  0.70723733  0.39402942
   0.97028970  0.07227159  0.40977723
   0.09701914  0.00775729  0.41047922
   0.39878250  0.08103981  0.40861189
   0.26092642  0.94060967  0.38391813
   0.98420618  0.32358018  0.41771141
   0.86076105  0.20387037  0.38623918
   0.63650440  0.42744894  0.39308890
   0.69317060  0.29756437  0.40948945
   0.77523236  0.66567190  0.39413712
   0.42787823  0.54917875  0.32871272
   0.36099998  0.80074971  0.40659890
   0.45675414  0.70317367  0.40457095
 
 position of ions in cartesian coordinates  (Angst):
   0.00000000  0.00000000  0.00000000
   4.76813912  8.27331743  5.16318185
   0.00900088  0.03898073 10.78476695
  -1.59262550  2.75850844  0.00000000
  -1.59411797  2.76381299  5.13998722
   7.87294847  2.78011840 10.18269179
  -3.18525100  5.51701689  0.00000000
   6.35862829  5.51771926  5.15243414
  -3.15022848  5.58540870 10.23520287
   3.18525100  0.00000000  0.00000000
  -1.59389340  8.27298509  5.12944684
   3.12820469  0.02455761 10.06708500
   1.59262550  2.75850844  0.00000000
   1.58416470  2.74512602  5.12126041
   1.50591513  2.70549750 10.16868698
  -0.00000001  5.51701689  0.00000000
  -0.01487244  5.52509696  5.15193920
  -0.13695655  5.60025126 10.75676191
   6.37050200  0.00000000  0.00000000
   1.59416714  8.26541948  5.14755105
   6.39438033  0.03592052 10.22302558
   4.77787638  2.75850844  0.00000000
   4.77019748  2.77415505  5.18227490
   4.79581547  2.62096452 10.70606100
   3.18525100  5.51701689  0.00000000
   3.20540950  5.52210842  5.17121988
   3.15687328  5.52068386 10.59171780
   0.00000017  1.83900547  2.60418248
  -0.03412487  1.81474591  7.70712930
  -1.59262550  4.59751415  2.60418248
  -1.56112192  4.61924659  7.71534063
  -3.18525076  7.35602236  2.60418248
  -3.21759965  7.35857622  7.65637537
   3.18525147  1.83900547  2.60418248
   3.17961991  1.88094030  7.68869681
   1.59262574  4.59751415  2.60418248
   1.59767723  4.60376399  7.63801551
   0.00000039  7.35602236  2.60418248
   0.01671885  7.31562743  7.71682194
   6.37050200  1.83900547  2.60418248
   6.34199078  1.82858354  7.67428635
   4.77787638  4.59751415  2.60418248
   4.74819901  4.55856419  7.87173014
   3.18525124  7.35602236  2.60418248
   3.21565011  7.31429591  7.82547502
   0.02718348  0.00033205 12.92327570
  -1.74618330  8.04781868 13.45052663
   7.46733943  1.78174384 13.57200034
   4.40640506  2.53208351 12.79114209
   3.60752290  4.89464076 12.42144765
   0.08846924  5.85275999 12.85524733
   8.92654374  0.59808535 13.36902112
   0.89002750  0.06419565 13.39192383
   3.42346881  0.67064694 13.33100186
  -2.00076833  7.78403849 12.52536569
   7.85880483  2.67779573 13.62787469
   7.25115233  1.68713430 12.60109018
   4.03998052  3.53736422 12.82456288
   5.20204104  2.46250130 13.35963237
   4.22743066  5.50878425 12.85876104
   1.46479034  4.54474231 10.72428377
  -0.37625662  6.62662399 13.26532780
   1.00495275  5.81913104 13.19916597
 


--------------------------------------------------------------------------------------------------------


 k-point  1 :   0.0000 0.0000 0.0000  plane waves:   69403
 k-point  2 :   0.3333-0.0000 0.0000  plane waves:   69509
 k-point  3 :   0.0000 0.3333 0.0000  plane waves:   69509
 k-point  4 :   0.3333 0.3333 0.0000  plane waves:   69474
 k-point  5 :  -0.3333 0.3333 0.0000  plane waves:   69509

 maximum and minimum number of plane-waves per node :      2924     2870

 maximum number of plane-waves:     69509
 maximum index in each direction: 
   IXMAX=   18   IYMAX=   17   IZMAX=   60
   IXMIN=  -18   IYMIN=  -18   IZMIN=  -60


 real space projection operators:
  total allocation   :      22587.24 KBytes
  max/ min on nodes  :       1317.20        526.18


 parallel 3D FFT for wavefunctions:
    minimum data exchange during FFTs selected (reduces bandwidth)
 parallel 3D FFT for charge:
    minimum data exchange during FFTs selected (reduces bandwidth)


 total amount of memory used by VASP MPI-rank0    62212. kBytes
=======================================================================

   base      :      30000. kBytes
   nonlr-proj:       6309. kBytes
   fftplans  :       6459. kBytes
   grid      :      11407. kBytes
   one-center:         24. kBytes
   wavefun   :       8013. kBytes
 
     INWAV:  cpu time    0.0001: real time    0.0004
 Broyden mixing: mesh for mixing (old mesh)
   NGX = 35   NGY = 35   NGZ =121
  (NGX  =144   NGY  =144   NGZ  =500)
  gives a total of 148225 points

 initial charge density was supplied:
 charge density of overlapping atoms calculated
 number of electron     138.0000000 magnetization 
 keeping initial charge density in first step


--------------------------------------------------------------------------------------------------------


 Maximum index for non-local projection operator          298
 Maximum index for augmentation-charges          837 (set IRDMAX)


--------------------------------------------------------------------------------------------------------


 First call to EWALD:  gamma=   0.129
 Maximum number of real-space cells 4x 4x 1
 Maximum number of reciprocal cells 2x 2x 6

    FEWALD:  cpu time    0.0037: real time    0.0037


--------------------------------------- Iteration      1(   1)  ---------------------------------------


vdW kernel read from vdw_kernel.bindat
  0.0000  0.2424  0.5071  0.7962  1.1119  1.4567  1.8333  2.2446  2.6937  3.1842
  3.7199  4.3049  4.9438  5.6415  6.4036  7.2358  8.1446  9.1372 10.2212 11.4050
 12.6979 14.1099 15.6519 17.3360 19.1751 21.1837 23.3773 25.7729 28.3892 31.2465
 34.3669 37.7748 41.4965 45.5611 50.0000
 
    POTLOK:  cpu time   10.3042: real time   10.6855
    SETDIJ:  cpu time    0.1355: real time    0.1355
    EDDIAG:  cpu time    2.7046: real time    2.7053
  RMM-DIIS:  cpu time    2.1949: real time    2.1952
    ORTHCH:  cpu time    0.9916: real time    0.9917
 BZINTS: Fermi energy:  9.556719;138.000000 electrons
         Band energy: 213.947485;  BLOECHL correction: -0.139570
       DOS:  cpu time    0.0068: real time    0.0068
    --------------------------------------------
      LOOP:  cpu time   16.3377: real time   16.7201

 eigenvalue-minimisations  :   510
 total energy-change (2. order) : 0.1242909E+04  (-0.2794265E+04)
 number of electron     138.0000000 magnetization 
 augmentation part      138.0000000 magnetization 

 DIPCOR: dipole corrections for dipol
 direction  3 min pos   365,
 dipolmoment           0.000000      0.000000     -0.000309 electrons x Angstroem
 Tr[quadrupol]     -1884.043330

 energy correction for charged system         0.000000 eV
 dipol+quadrupol energy correction           -0.000000 eV
 added-field ion interaction          0.001359 eV  (added to PSCEN)


 Free energy of the ion-electron system (eV)
  ---------------------------------------------------
  alpha Z        PSCENC =        63.16242238
  Ewald energy   TEWEN  =     13012.84918454
  -Hartree energ DENC   =    -16240.10846503
  -exchange      EXHF   =         0.00000000
  -V(xc)+E(xc)   XCENC  =     -2051.07470169
  PAW double counting   =      5135.15659847    -2719.01140655
  entropy T*S    EENTRO =         0.00000000
  eigenvalues    EBANDS =       213.94748507
  atomic energy  EATOM  =      3827.98814510
  Solvation  Ediel_sol  =         0.00000000
  ---------------------------------------------------
  free energy    TOTEN  =      1242.90926231 eV

  energy without entropy =     1242.90926231  energy(sigma->0) =     1242.90926231


--------------------------------------------------------------------------------------------------------




--------------------------------------- Iteration      1(   2)  ---------------------------------------


    EDDIAG:  cpu time    2.7154: real time    2.7354
  RMM-DIIS:  cpu time    2.1481: real time    2.1484
    ORTHCH:  cpu time    0.5453: real time    0.5454
 BZINTS: Fermi energy:  2.125281;138.000000 electrons
         Band energy:-484.802589;  BLOECHL correction: -0.214978
       DOS:  cpu time    0.0034: real time    0.0034
    --------------------------------------------
      LOOP:  cpu time    5.4122: real time    5.4327

 eigenvalue-minimisations  :   510
 total energy-change (2. order) :-0.6987501E+03  (-0.7581984E+03)
 number of electron     138.0000000 magnetization 
 augmentation part      138.0000000 magnetization 

 DIPCOR: dipole corrections for dipol
 direction  3 min pos   365,
 dipolmoment           0.000000      0.000000     -0.000309 electrons x Angstroem
 Tr[quadrupol]     -1884.043330

 energy correction for charged system         0.000000 eV
 dipol+quadrupol energy correction           -0.000000 eV
 added-field ion interaction          0.001359 eV  (added to PSCEN)


 Free energy of the ion-electron system (eV)
  ---------------------------------------------------
  alpha Z        PSCENC =        63.16242238
  Ewald energy   TEWEN  =     13012.84918454
  -Hartree energ DENC   =    -16240.10846503
  -exchange      EXHF   =         0.00000000
  -V(xc)+E(xc)   XCENC  =     -2051.07470169
  PAW double counting   =      5135.15659847    -2719.01140655
  entropy T*S    EENTRO =         0.00000000
  eigenvalues    EBANDS =      -484.80258904
  atomic energy  EATOM  =      3827.98814510
  Solvation  Ediel_sol  =         0.00000000
  ---------------------------------------------------
  free energy    TOTEN  =       544.15918820 eV

  energy without entropy =      544.15918820  energy(sigma->0) =      544.15918820


--------------------------------------------------------------------------------------------------------




--------------------------------------- Iteration      1(   3)  ---------------------------------------


    EDDIAG:  cpu time    1.2976: real time    1.3226
  RMM-DIIS:  cpu time    1.3237: real time    1.3239
    ORTHCH:  cpu time    0.4066: real time    0.4067
 BZINTS: Fermi energy:  0.376107;138.000000 electrons
         Band energy:-719.166274;  BLOECHL correction: -0.343385
       DOS:  cpu time    0.0038: real time    0.0038
    --------------------------------------------
      LOOP:  cpu time    3.0317: real time    3.0570

 eigenvalue-minimisations  :   510
 total energy-change (2. order) :-0.2343637E+03  (-0.2992511E+03)
 number of electron     138.0000000 magnetization 
 augmentation part      138.0000000 magnetization 

 DIPCOR: dipole corrections for dipol
 direction  3 min pos   365,
 dipolmoment           0.000000      0.000000     -0.000309 electrons x Angstroem
 Tr[quadrupol]     -1884.043330

 energy correction for charged system         0.000000 eV
 dipol+quadrupol energy correction           -0.000000 eV
 added-field ion interaction          0.001359 eV  (added to PSCEN)


 Free energy of the ion-electron system (eV)
  ---------------------------------------------------
  alpha Z        PSCENC =        63.16242238
  Ewald energy   TEWEN  =     13012.84918454
  -Hartree energ DENC   =    -16240.10846503
  -exchange      EXHF   =         0.00000000
  -V(xc)+E(xc)   XCENC  =     -2051.07470169
  PAW double counting   =      5135.15659847    -2719.01140655
  entropy T*S    EENTRO =         0.00000000
  eigenvalues    EBANDS =      -719.16627378
  atomic energy  EATOM  =      3827.98814510
  Solvation  Ediel_sol  =         0.00000000
  ---------------------------------------------------
  free energy    TOTEN  =       309.79550345 eV

  energy without entropy =      309.79550345  energy(sigma->0) =      309.79550345


--------------------------------------------------------------------------------------------------------




--------------------------------------- Iteration      1(   4)  ---------------------------------------


    EDDIAG:  cpu time    1.4414: real time    1.4628
  RMM-DIIS:  cpu time    1.5128: real time    1.5130
    ORTHCH:  cpu time    0.5640: real time    0.5641
 BZINTS: Fermi energy: -0.701040;138.000000 electrons
         Band energy:-890.556109;  BLOECHL correction: -0.128258
       DOS:  cpu time    0.0036: real time    0.0036
    --------------------------------------------
      LOOP:  cpu time    3.5218: real time    3.5434

 eigenvalue-minimisations  :   510
 total energy-change (2. order) :-0.1713898E+03  (-0.1475002E+03)
 number of electron     138.0000000 magnetization 
 augmentation part      138.0000000 magnetization 

 DIPCOR: dipole corrections for dipol
 direction  3 min pos   365,
 dipolmoment           0.000000      0.000000     -0.000309 electrons x Angstroem
 Tr[quadrupol]     -1884.043330

 energy correction for charged system         0.000000 eV
 dipol+quadrupol energy correction           -0.000000 eV
 added-field ion interaction          0.001359 eV  (added to PSCEN)


 Free energy of the ion-electron system (eV)
  ---------------------------------------------------
  alpha Z        PSCENC =        63.16242238
  Ewald energy   TEWEN  =     13012.84918454
  -Hartree energ DENC   =    -16240.10846503
  -exchange      EXHF   =         0.00000000
  -V(xc)+E(xc)   XCENC  =     -2051.07470169
  PAW double counting   =      5135.15659847    -2719.01140655
  entropy T*S    EENTRO =         0.00000000
  eigenvalues    EBANDS =      -890.55610898
  atomic energy  EATOM  =      3827.98814510
  Solvation  Ediel_sol  =         0.00000000
  ---------------------------------------------------
  free energy    TOTEN  =       138.40566826 eV

  energy without entropy =      138.40566826  energy(sigma->0) =      138.40566826


--------------------------------------------------------------------------------------------------------




--------------------------------------- Iteration      1(   5)  ---------------------------------------


    EDDIAG:  cpu time    1.4839: real time    1.5069
  RMM-DIIS:  cpu time    1.4333: real time    1.4335
    ORTHCH:  cpu time    0.4682: real time    0.4683
 BZINTS: Fermi energy: -1.270193;138.000000 electrons
         Band energy:***********;  BLOECHL correction: -0.166875
       DOS:  cpu time    0.0034: real time    0.0034
    --------------------------------------------
      LOOP:  cpu time    3.3889: real time    3.4122

 eigenvalue-minimisations  :   510
 total energy-change (2. order) :-0.1157515E+03  (-0.9198762E+02)
 number of electron     138.0000000 magnetization 
 augmentation part      138.0000000 magnetization 

 DIPCOR: dipole corrections for dipol
 direction  3 min pos   365,
 dipolmoment           0.000000      0.000000     -0.000309 electrons x Angstroem
 Tr[quadrupol]     -1884.043330

 energy correction for charged system         0.000000 eV
 dipol+quadrupol energy correction           -0.000000 eV
 added-field ion interaction          0.001359 eV  (added to PSCEN)


 Free energy of the ion-electron system (eV)
  ---------------------------------------------------
  alpha Z        PSCENC =        63.16242238
  Ewald energy   TEWEN  =     13012.84918454
  -Hartree energ DENC   =    -16240.10846503
  -exchange      EXHF   =         0.00000000
  -V(xc)+E(xc)   XCENC  =     -2051.07470169
  PAW double counting   =      5135.15659847    -2719.01140655
  entropy T*S    EENTRO =         0.00000000
  eigenvalues    EBANDS =     -1006.30758894
  atomic energy  EATOM  =      3827.98814510
  Solvation  Ediel_sol  =         0.00000000
  ---------------------------------------------------
  free energy    TOTEN  =        22.65418830 eV

  energy without entropy =       22.65418830  energy(sigma->0) =       22.65418830


--------------------------------------------------------------------------------------------------------




--------------------------------------- Iteration      1(   6)  ---------------------------------------


    EDDIAG:  cpu time    1.4248: real time    1.4425
  RMM-DIIS:  cpu time    1.4487: real time    1.4489
    ORTHCH:  cpu time    0.4752: real time    0.4753
 BZINTS: Fermi energy: -1.375158;138.000000 electrons
         Band energy:***********;  BLOECHL correction: -0.062833
       DOS:  cpu time    0.0035: real time    0.0035
    --------------------------------------------
      LOOP:  cpu time    3.3522: real time    3.3702

 eigenvalue-minimisations  :   510
 total energy-change (2. order) :-0.6447593E+02  (-0.4891243E+02)
 number of electron     138.0000000 magnetization 
 augmentation part      138.0000000 magnetization 

 DIPCOR: dipole corrections for dipol
 direction  3 min pos   365,
 dipolmoment           0.000000      0.000000     -0.000309 electrons x Angstroem
 Tr[quadrupol]     -1884.043330

 energy correction for charged system         0.000000 eV
 dipol+quadrupol energy correction           -0.000000 eV
 added-field ion interaction          0.001359 eV  (added to PSCEN)


 Free energy of the ion-electron system (eV)
  ---------------------------------------------------
  alpha Z        PSCENC =        63.16242238
  Ewald energy   TEWEN  =     13012.84918454
  -Hartree energ DENC   =    -16240.10846503
  -exchange      EXHF   =         0.00000000
  -V(xc)+E(xc)   XCENC  =     -2051.07470169
  PAW double counting   =      5135.15659847    -2719.01140655
  entropy T*S    EENTRO =         0.00000000
  eigenvalues    EBANDS =     -1070.78352091
  atomic energy  EATOM  =      3827.98814510
  Solvation  Ediel_sol  =         0.00000000
  ---------------------------------------------------
  free energy    TOTEN  =       -41.82174367 eV

  energy without entropy =      -41.82174367  energy(sigma->0) =      -41.82174367


--------------------------------------------------------------------------------------------------------




--------------------------------------- Iteration      1(   7)  ---------------------------------------


    EDDIAG:  cpu time    1.3502: real time    1.3693
  RMM-DIIS:  cpu time    1.6074: real time    1.6076
    ORTHCH:  cpu time    0.6449: real time    0.6450
 BZINTS: Fermi energy: -1.427648;138.000000 electrons
         Band energy:***********;  BLOECHL correction: -0.055916
       DOS:  cpu time    0.0031: real time    0.0031
    --------------------------------------------
      LOOP:  cpu time    3.6056: real time    3.6250

 eigenvalue-minimisations  :   510
 total energy-change (2. order) :-0.2826840E+02  (-0.2106875E+02)
 number of electron     138.0000000 magnetization 
 augmentation part      138.0000000 magnetization 

 DIPCOR: dipole corrections for dipol
 direction  3 min pos   365,
 dipolmoment           0.000000      0.000000     -0.000309 electrons x Angstroem
 Tr[quadrupol]     -1884.043330

 energy correction for charged system         0.000000 eV
 dipol+quadrupol energy correction           -0.000000 eV
 added-field ion interaction          0.001359 eV  (added to PSCEN)


 Free energy of the ion-electron system (eV)
  ---------------------------------------------------
  alpha Z        PSCENC =        63.16242238
  Ewald energy   TEWEN  =     13012.84918454
  -Hartree energ DENC   =    -16240.10846503
  -exchange      EXHF   =         0.00000000
  -V(xc)+E(xc)   XCENC  =     -2051.07470169
  PAW double counting   =      5135.15659847    -2719.01140655
  entropy T*S    EENTRO =         0.00000000
  eigenvalues    EBANDS =     -1099.05191878
  atomic energy  EATOM  =      3827.98814510
  Solvation  Ediel_sol  =         0.00000000
  ---------------------------------------------------
  free energy    TOTEN  =       -70.09014155 eV

  energy without entropy =      -70.09014155  energy(sigma->0) =      -70.09014155


--------------------------------------------------------------------------------------------------------




--------------------------------------- Iteration      1(   8)  ---------------------------------------


    EDDIAG:  cpu time    2.0728: real time    2.0958
  RMM-DIIS:  cpu time    2.1917: real time    2.1920
    ORTHCH:  cpu time    0.9991: real time    0.9992
 BZINTS: Fermi energy: -1.471184;138.000000 electrons
         Band energy:***********;  BLOECHL correction: -0.067298
       DOS:  cpu time    0.0065: real time    0.0065
    --------------------------------------------
      LOOP:  cpu time    5.2702: real time    5.2936

 eigenvalue-minimisations  :   510
 total energy-change (2. order) :-0.8028757E+01  (-0.6491959E+01)
 number of electron     138.0000000 magnetization 
 augmentation part      138.0000000 magnetization 

 DIPCOR: dipole corrections for dipol
 direction  3 min pos   365,
 dipolmoment           0.000000      0.000000     -0.000309 electrons x Angstroem
 Tr[quadrupol]     -1884.043330

 energy correction for charged system         0.000000 eV
 dipol+quadrupol energy correction           -0.000000 eV
 added-field ion interaction          0.001359 eV  (added to PSCEN)


 Free energy of the ion-electron system (eV)
  ---------------------------------------------------
  alpha Z        PSCENC =        63.16242238
  Ewald energy   TEWEN  =     13012.84918454
  -Hartree energ DENC   =    -16240.10846503
  -exchange      EXHF   =         0.00000000
  -V(xc)+E(xc)   XCENC  =     -2051.07470169
  PAW double counting   =      5135.15659847    -2719.01140655
  entropy T*S    EENTRO =         0.00000000
  eigenvalues    EBANDS =     -1107.08067621
  atomic energy  EATOM  =      3827.98814510
  Solvation  Ediel_sol  =         0.00000000
  ---------------------------------------------------
  free energy    TOTEN  =       -78.11889897 eV

  energy without entropy =      -78.11889897  energy(sigma->0) =      -78.11889897


--------------------------------------------------------------------------------------------------------




--------------------------------------- Iteration      1(   9)  ---------------------------------------


    EDDIAG:  cpu time    2.6550: real time    2.6780
  RMM-DIIS:  cpu time    5.1255: real time    5.1262
    ORTHCH:  cpu time    0.9838: real time    0.9839
 BZINTS: Fermi energy: -1.505033;138.000000 electrons
         Band energy:***********;  BLOECHL correction: -0.070930
       DOS:  cpu time    0.0088: real time    0.0088
    --------------------------------------------
      LOOP:  cpu time    8.7731: real time    8.7969

 eigenvalue-minimisations  :  1468
 total energy-change (2. order) :-0.2287831E+01  (-0.2198091E+01)
 number of electron     138.0000000 magnetization 
 augmentation part      138.0000000 magnetization 

 DIPCOR: dipole corrections for dipol
 direction  3 min pos   365,
 dipolmoment           0.000000      0.000000     -0.000309 electrons x Angstroem
 Tr[quadrupol]     -1884.043330

 energy correction for charged system         0.000000 eV
 dipol+quadrupol energy correction           -0.000000 eV
 added-field ion interaction          0.001359 eV  (added to PSCEN)


 Free energy of the ion-electron system (eV)
  ---------------------------------------------------
  alpha Z        PSCENC =        63.16242238
  Ewald energy   TEWEN  =     13012.84918454
  -Hartree energ DENC   =    -16240.10846503
  -exchange      EXHF   =         0.00000000
  -V(xc)+E(xc)   XCENC  =     -2051.07470169
  PAW double counting   =      5135.15659847    -2719.01140655
  entropy T*S    EENTRO =         0.00000000
  eigenvalues    EBANDS =     -1109.36850717
  atomic energy  EATOM  =      3827.98814510
  Solvation  Ediel_sol  =         0.00000000
  ---------------------------------------------------
  free energy    TOTEN  =       -80.40672994 eV

  energy without entropy =      -80.40672994  energy(sigma->0) =      -80.40672994


--------------------------------------------------------------------------------------------------------




--------------------------------------- Iteration      1(  10)  ---------------------------------------


    EDDIAG:  cpu time    2.6963: real time    2.7128
  RMM-DIIS:  cpu time    5.9582: real time    5.9590
    ORTHCH:  cpu time    1.0130: real time    1.0131
 BZINTS: Fermi energy: -1.507171;138.000000 electrons
         Band energy:***********;  BLOECHL correction: -0.071065
       DOS:  cpu time    0.0034: real time    0.0034
    --------------------------------------------
      LOOP:  cpu time    9.6708: real time    9.6882

 eigenvalue-minimisations  :  1745
 total energy-change (2. order) :-0.2811244E+00  (-0.3036513E+00)
 number of electron     138.0000000 magnetization 
 augmentation part      138.0000000 magnetization 

 DIPCOR: dipole corrections for dipol
 direction  3 min pos   365,
 dipolmoment           0.000000      0.000000     -0.000309 electrons x Angstroem
 Tr[quadrupol]     -1884.043330

 energy correction for charged system         0.000000 eV
 dipol+quadrupol energy correction           -0.000000 eV
 added-field ion interaction          0.001359 eV  (added to PSCEN)


 Free energy of the ion-electron system (eV)
  ---------------------------------------------------
  alpha Z        PSCENC =        63.16242238
  Ewald energy   TEWEN  =     13012.84918454
  -Hartree energ DENC   =    -16240.10846503
  -exchange      EXHF   =         0.00000000
  -V(xc)+E(xc)   XCENC  =     -2051.07470169
  PAW double counting   =      5135.15659847    -2719.01140655
  entropy T*S    EENTRO =         0.00000000
  eigenvalues    EBANDS =     -1109.64963155
  atomic energy  EATOM  =      3827.98814510
  Solvation  Ediel_sol  =         0.00000000
  ---------------------------------------------------
  free energy    TOTEN  =       -80.68785432 eV

  energy without entropy =      -80.68785432  energy(sigma->0) =      -80.68785432


--------------------------------------------------------------------------------------------------------




--------------------------------------- Iteration      1(  11)  ---------------------------------------


    EDDIAG:  cpu time    2.6767: real time    2.6941
  RMM-DIIS:  cpu time    5.8183: real time    5.8190
    ORTHCH:  cpu time    0.9844: real time    0.9845
 BZINTS: Fermi energy: -1.507701;138.000000 electrons
         Band energy:***********;  BLOECHL correction: -0.070986
       DOS:  cpu time    0.0084: real time    0.0084
    --------------------------------------------
      LOOP:  cpu time    9.4877: real time    9.5060

 eigenvalue-minimisations  :  1696
 total energy-change (2. order) : 0.2125128E-03  (-0.1625242E-01)
 number of electron     138.0000000 magnetization 
 augmentation part      138.0000000 magnetization 

 DIPCOR: dipole corrections for dipol
 direction  3 min pos   365,
 dipolmoment           0.000000      0.000000     -0.000309 electrons x Angstroem
 Tr[quadrupol]     -1884.043330

 energy correction for charged system         0.000000 eV
 dipol+quadrupol energy correction           -0.000000 eV
 added-field ion interaction          0.001359 eV  (added to PSCEN)


 Free energy of the ion-electron system (eV)
  ---------------------------------------------------
  alpha Z        PSCENC =        63.16242238
  Ewald energy   TEWEN  =     13012.84918454
  -Hartree energ DENC   =    -16240.10846503
  -exchange      EXHF   =         0.00000000
  -V(xc)+E(xc)   XCENC  =     -2051.07470169
  PAW double counting   =      5135.15659847    -2719.01140655
  entropy T*S    EENTRO =         0.00000000
  eigenvalues    EBANDS =     -1109.64941904
  atomic energy  EATOM  =      3827.98814510
  Solvation  Ediel_sol  =         0.00000000
  ---------------------------------------------------
  free energy    TOTEN  =       -80.68764180 eV

  energy without entropy =      -80.68764180  energy(sigma->0) =      -80.68764180


--------------------------------------------------------------------------------------------------------




--------------------------------------- Iteration      1(  12)  ---------------------------------------


    EDDIAG:  cpu time    2.6545: real time    2.6744
  RMM-DIIS:  cpu time    5.9445: real time    5.9453
    ORTHCH:  cpu time    0.4214: real time    0.4214
 BZINTS: Fermi energy: -1.507774;138.000000 electrons
         Band energy:***********;  BLOECHL correction: -0.070997
       DOS:  cpu time    0.0038: real time    0.0038
    CHARGE:  cpu time    0.2688: real time    0.2689
    MIXING:  cpu time    0.0044: real time    0.0044
    --------------------------------------------
      LOOP:  cpu time    9.2975: real time    9.3182

 eigenvalue-minimisations  :  1807
 total energy-change (2. order) :-0.2848031E-02  (-0.3582559E-02)
 number of electron     138.0000004 magnetization 
 augmentation part        5.2669683 magnetization 

 DIPCOR: dipole corrections for dipol
 direction  3 min pos   365,
 dipolmoment           0.000000      0.000000     -0.000309 electrons x Angstroem
 Tr[quadrupol]     -1884.043330

 energy correction for charged system         0.000000 eV
 dipol+quadrupol energy correction           -0.000000 eV
 added-field ion interaction          0.001359 eV  (added to PSCEN)


 Broyden mixing:
  rms(total) = 0.20216E+01    rms(broyden)= 0.20205E+01
  rms(prec ) = 0.21145E+01
  weight for this iteration     100.00

 Free energy of the ion-electron system (eV)
  ---------------------------------------------------
  alpha Z        PSCENC =        63.16242238
  Ewald energy   TEWEN  =     13012.84918454
  -Hartree energ DENC   =    -16240.10846503
  -exchange      EXHF   =         0.00000000
  -V(xc)+E(xc)   XCENC  =     -2051.07470169
  PAW double counting   =      5135.15659847    -2719.01140655
  entropy T*S    EENTRO =         0.00000000
  eigenvalues    EBANDS =     -1109.65226707
  atomic energy  EATOM  =      3827.98814510
  Solvation  Ediel_sol  =         0.00000000
  ---------------------------------------------------
  free energy    TOTEN  =       -80.69048984 eV

  energy without entropy =      -80.69048984  energy(sigma->0) =      -80.69048984


--------------------------------------------------------------------------------------------------------




--------------------------------------- Iteration      1(  13)  ---------------------------------------


    POTLOK:  cpu time    7.1821: real time    7.1977
    SETDIJ:  cpu time    0.1382: real time    0.1382
    EDDIAG:  cpu time    1.4322: real time    1.4325
  RMM-DIIS:  cpu time    3.3817: real time    3.3822
    ORTHCH:  cpu time    0.4595: real time    0.4596
 BZINTS: Fermi energy: -1.176963;138.000000 electrons
         Band energy:-924.151375;  BLOECHL correction: -0.079118
       DOS:  cpu time    0.0033: real time    0.0033
    CHARGE:  cpu time    0.2882: real time    0.2882
    MIXING:  cpu time    0.0046: real time    0.0046
    --------------------------------------------
      LOOP:  cpu time   12.8897: real time   12.9063

 eigenvalue-minimisations  :  1409
 total energy-change (2. order) : 0.9854152E+01  (-0.6263868E+01)
 number of electron     138.0000003 magnetization 
 augmentation part        4.4664064 magnetization 

 DIPCOR: dipole corrections for dipol
 direction  3 min pos   365,
 dipolmoment           0.000000      0.000000      0.569242 electrons x Angstroem
 Tr[quadrupol]     -1895.667372

 energy correction for charged system         0.000000 eV
 dipol+quadrupol energy correction           -0.011364 eV
 added-field ion interaction         -2.501625 eV  (added to PSCEN)


 Broyden mixing:
  rms(total) = 0.79639E+00    rms(broyden)= 0.79586E+00
  rms(prec ) = 0.10307E+01
  weight for this iteration     100.00

 eigenvalues of (default mixing * dielectric matrix)
  average eigenvalue GAMMA=   0.9386
  0.9386

 Free energy of the ion-electron system (eV)
  ---------------------------------------------------
  alpha Z        PSCENC =        60.64807497
  Ewald energy   TEWEN  =     13012.84918454
  -Hartree energ DENC   =    -16420.64579573
  -exchange      EXHF   =         0.00000000
  -V(xc)+E(xc)   XCENC  =     -2041.08454792
  PAW double counting   =      5557.96741826    -3144.40744215
  entropy T*S    EENTRO =         0.00000000
  eigenvalues    EBANDS =      -924.15137477
  atomic energy  EATOM  =      3827.98814510
  Solvation  Ediel_sol  =         0.00000000
  ---------------------------------------------------
  free energy    TOTEN  =       -70.83633770 eV

  energy without entropy =      -70.83633770  energy(sigma->0) =      -70.83633770


--------------------------------------------------------------------------------------------------------




--------------------------------------- Iteration      1(  14)  ---------------------------------------


    POTLOK:  cpu time    7.4782: real time    7.4998
    SETDIJ:  cpu time    0.1343: real time    0.1344
    EDDIAG:  cpu time    2.5942: real time    2.5947
  RMM-DIIS:  cpu time    5.5162: real time    5.5169
    ORTHCH:  cpu time    1.0589: real time    1.0590
 BZINTS: Fermi energy: -0.869899;138.000000 electrons
         Band energy:***********;  BLOECHL correction: -0.005019
       DOS:  cpu time    0.0033: real time    0.0033
    CHARGE:  cpu time    0.4993: real time    0.4994
    MIXING:  cpu time    0.0041: real time    0.0041
    --------------------------------------------
      LOOP:  cpu time   17.2886: real time   17.3116

 eigenvalue-minimisations  :  1615
 total energy-change (2. order) :-0.2604260E+02  (-0.1395316E+01)
 number of electron     138.0000003 magnetization 
 augmentation part        4.4568882 magnetization 

 DIPCOR: dipole corrections for dipol
 direction  3 min pos   377,
 dipolmoment           0.000000      0.000000     -2.070560 electrons x Angstroem
 Tr[quadrupol]     -1880.438254

 energy correction for charged system         0.000000 eV
 dipol+quadrupol energy correction           -0.150347 eV
 added-field ion interaction         -6.592734 eV  (added to PSCEN)


 Broyden mixing:
  rms(total) = 0.10803E+01    rms(broyden)= 0.10803E+01
  rms(prec ) = 0.31894E+01
  weight for this iteration     100.00

 eigenvalues of (default mixing * dielectric matrix)
  average eigenvalue GAMMA=   0.7279
  0.9602  0.4957

 Free energy of the ion-electron system (eV)
  ---------------------------------------------------
  alpha Z        PSCENC =        56.41798256
  Ewald energy   TEWEN  =     13012.84918454
  -Hartree energ DENC   =    -16365.27614732
  -exchange      EXHF   =         0.00000000
  -V(xc)+E(xc)   XCENC  =     -2039.20615061
  PAW double counting   =      5708.72331067    -3295.16861104
  entropy T*S    EENTRO =         0.00000000
  eigenvalues    EBANDS =     -1003.20664705
  atomic energy  EATOM  =      3827.98814510
  Solvation  Ediel_sol  =         0.00000000
  ---------------------------------------------------
  free energy    TOTEN  =       -96.87893316 eV

  energy without entropy =      -96.87893316  energy(sigma->0) =      -96.87893316


--------------------------------------------------------------------------------------------------------




--------------------------------------- Iteration      1(  15)  ---------------------------------------


    POTLOK:  cpu time    9.7198: real time    9.7430
    SETDIJ:  cpu time    0.1348: real time    0.1348
    EDDIAG:  cpu time    2.6909: real time    2.6914
  RMM-DIIS:  cpu time    5.1079: real time    5.1086
    ORTHCH:  cpu time    1.0366: real time    1.0367
 BZINTS: Fermi energy: -1.224597;138.000000 electrons
         Band energy:-921.807162;  BLOECHL correction: -0.091280
       DOS:  cpu time    0.0032: real time    0.0032
    CHARGE:  cpu time    0.5036: real time    0.5037
    MIXING:  cpu time    0.0043: real time    0.0043
    --------------------------------------------
      LOOP:  cpu time   19.2011: real time   19.2256

 eigenvalue-minimisations  :  1456
 total energy-change (2. order) : 0.2755034E+02  (-0.3224726E+00)
 number of electron     138.0000003 magnetization 
 augmentation part        4.3834309 magnetization 

 DIPCOR: dipole corrections for dipol
 direction  3 min pos   385,
 dipolmoment           0.000000      0.000000      0.106352 electrons x Angstroem
 Tr[quadrupol]     -1893.210873

 energy correction for charged system         0.000000 eV
 dipol+quadrupol energy correction           -0.000397 eV
 added-field ion interaction          0.875971 eV  (added to PSCEN)


 Broyden mixing:
  rms(total) = 0.49498E+00    rms(broyden)= 0.49495E+00
  rms(prec ) = 0.55161E+00
  weight for this iteration     100.00

 eigenvalues of (default mixing * dielectric matrix)
  average eigenvalue GAMMA=   1.0945
  1.9717  1.1632  0.1485

 Free energy of the ion-electron system (eV)
  ---------------------------------------------------
  alpha Z        PSCENC =        64.03663755
  Ewald energy   TEWEN  =     13012.84918454
  -Hartree energ DENC   =    -16427.24578471
  -exchange      EXHF   =         0.00000000
  -V(xc)+E(xc)   XCENC  =     -2038.71386778
  PAW double counting   =      5748.01878201    -3334.45452429
  entropy T*S    EENTRO =         0.00000000
  eigenvalues    EBANDS =      -921.80716234
  atomic energy  EATOM  =      3827.98814510
  Solvation  Ediel_sol  =         0.00000000
  ---------------------------------------------------
  free energy    TOTEN  =       -69.32858990 eV

  energy without entropy =      -69.32858990  energy(sigma->0) =      -69.32858990


--------------------------------------------------------------------------------------------------------




--------------------------------------- Iteration      1(  16)  ---------------------------------------


    POTLOK:  cpu time    9.7187: real time    9.7418
    SETDIJ:  cpu time    0.1348: real time    0.1348
    EDDIAG:  cpu time    2.2631: real time    2.2636
  RMM-DIIS:  cpu time    3.5307: real time    3.5312
    ORTHCH:  cpu time    0.4015: real time    0.4016
 BZINTS: Fermi energy: -0.943099;138.000000 electrons
         Band energy:-901.544528;  BLOECHL correction: -0.074297
       DOS:  cpu time    0.0035: real time    0.0035
    CHARGE:  cpu time    0.2816: real time    0.2816
    MIXING:  cpu time    0.0043: real time    0.0043
    --------------------------------------------
      LOOP:  cpu time   16.3382: real time   16.3624

 eigenvalue-minimisations  :  1580
 total energy-change (2. order) : 0.9755592E-02  (-0.1395746E+00)
 number of electron     138.0000003 magnetization 
 augmentation part        4.4360062 magnetization 

 DIPCOR: dipole corrections for dipol
 direction  3 min pos   369,
 dipolmoment           0.000000      0.000000      0.127927 electrons x Angstroem
 Tr[quadrupol]     -1898.412544

 energy correction for charged system         0.000000 eV
 dipol+quadrupol energy correction           -0.000574 eV
 added-field ion interaction         -0.239022 eV  (added to PSCEN)


 Broyden mixing:
  rms(total) = 0.25019E+00    rms(broyden)= 0.25018E+00
  rms(prec ) = 0.40438E+00
  weight for this iteration     100.00

 eigenvalues of (default mixing * dielectric matrix)
  average eigenvalue GAMMA=   1.0473
  2.3882  0.9993  0.6490  0.1526

 Free energy of the ion-electron system (eV)
  ---------------------------------------------------
  alpha Z        PSCENC =        62.92146692
  Ewald energy   TEWEN  =     13012.84918454
  -Hartree energ DENC   =    -16447.85954795
  -exchange      EXHF   =         0.00000000
  -V(xc)+E(xc)   XCENC  =     -2037.40503879
  PAW double counting   =      5859.25957850    -3445.52809486
  entropy T*S    EENTRO =         0.00000000
  eigenvalues    EBANDS =      -901.54452777
  atomic energy  EATOM  =      3827.98814510
  Solvation  Ediel_sol  =         0.00000000
  ---------------------------------------------------
  free energy    TOTEN  =       -69.31883431 eV

  energy without entropy =      -69.31883431  energy(sigma->0) =      -69.31883431


--------------------------------------------------------------------------------------------------------




--------------------------------------- Iteration      1(  17)  ---------------------------------------


    POTLOK:  cpu time    7.3677: real time    7.3861
    SETDIJ:  cpu time    0.1360: real time    0.1360
    EDDIAG:  cpu time    1.4152: real time    1.4156
  RMM-DIIS:  cpu time    3.1068: real time    3.1072
    ORTHCH:  cpu time    0.3765: real time    0.3765
 BZINTS: Fermi energy: -0.916032;138.000000 electrons
         Band energy:-897.164214;  BLOECHL correction: -0.091325
       DOS:  cpu time    0.0033: real time    0.0033
    CHARGE:  cpu time    0.3605: real time    0.3606
    MIXING:  cpu time    0.0047: real time    0.0047
    --------------------------------------------
      LOOP:  cpu time   12.7708: real time   12.7900

 eigenvalue-minimisations  :  1344
 total energy-change (2. order) : 0.3277087E+00  (-0.4270222E-01)
 number of electron     138.0000003 magnetization 
 augmentation part        4.4486417 magnetization 

 DIPCOR: dipole corrections for dipol
 direction  3 min pos   379,
 dipolmoment           0.000000      0.000000     -0.223759 electrons x Angstroem
 Tr[quadrupol]     -1896.820799

 energy correction for charged system         0.000000 eV
[...]
  0.013  -0.001  -0.000   0.054   0.001   0.000  -0.003  -0.000  -0.000   0.000   0.011  -0.000   0.000
  0.001   0.000  -0.002   0.001   0.076   0.000  -0.000  -0.004  -0.003  -0.000   0.000   0.004   0.000
  0.000   0.000  -0.004   0.000   0.000   0.000  -0.000  -0.000  -0.000  -0.000  -0.000   0.000   0.000
 -0.003   0.000   0.000  -0.003  -0.000  -0.000   0.000   0.000   0.000  -0.000  -0.001   0.000  -0.000
 -0.000  -0.000   0.000  -0.000  -0.004  -0.000   0.000   0.000   0.000   0.000  -0.000  -0.000  -0.000
  0.001   0.000   0.000  -0.000  -0.003  -0.000   0.000   0.000   0.004   0.000   0.000  -0.000  -0.000
  0.000  -0.000   0.004   0.000  -0.000  -0.000  -0.000   0.000   0.000   0.002   0.000   0.000  -0.000
 -0.022   0.000  -0.000   0.011   0.000  -0.000  -0.001  -0.000   0.000   0.000   0.004  -0.000   0.000
  0.000   0.000  -0.000  -0.000   0.004   0.000   0.000  -0.000  -0.000   0.000  -0.000   0.002   0.000
 -0.001  -0.000  -0.002   0.000   0.000   0.000  -0.000  -0.000  -0.000  -0.000   0.000   0.000   0.003


------------------------ aborting loop because EDIFF is reached ----------------------------------------


    CHARGE:  cpu time    0.5133: real time    0.5133
    FORLOC:  cpu time    0.0415: real time    0.0415
    FORNL :  cpu time    1.1739: real time    1.1740
    STRESS:  cpu time    3.5994: real time    3.5999
    FORCOR:  cpu time    7.5036: real time    7.5045
    FORHAR:  cpu time    0.2564: real time    0.2564
    MIXING:  cpu time    0.0081: real time    0.0081
    OFIELD:  cpu time    0.0000: real time    0.0000

  FORCE on cell =-STRESS in cart. coord.  units (eV):
  Direction    XX          YY          ZZ          XY          YZ          ZX
  --------------------------------------------------------------------------------------
  Alpha Z    63.16106    63.16106    63.16106
  Ewald   14519.68456 14469.33276-15976.17799  -228.29198    94.19310   141.27001
  Hartree 15433.25947 15386.54412-14340.44175  -174.68755    20.71404    32.29467
  E(xc)    -445.80832  -445.58990  -444.68239    -0.11754     0.44713     0.53049
  Local  -30914.11891-30820.13376 29351.64839   405.17716   -85.32365  -135.78626
  n-local   119.84429   119.53057   112.15848    -0.33825     0.31552     1.12082
  augment    44.47781    44.65950    45.52005    -0.17468    -1.92253    -2.57686
  Kinetic  1170.78566  1174.01494  1189.50133    -0.86097   -27.78110   -37.03044
  Fock        0.00000     0.00000     0.00000     0.00000     0.00000     0.00000
  -------------------------------------------------------------------------------------
  Total      -8.71437    -8.48072     0.68717     0.70620     0.64250    -0.17758
  in kB      -5.41171    -5.26661     0.42674     0.43856     0.39900    -0.11028
  external pressure =       -3.42 kB  Pullay stress =        0.00 kB


 VOLUME and BASIS-vectors are now :
 -----------------------------------------------------------------------------
  energy-cutoff  :      520.00
  volume of cell :     2579.96
      direct lattice vectors                 reciprocal lattice vectors
     9.555752754  0.000000000  0.000000000     0.104649003  0.060419130  0.000000000
    -4.777876377  8.275524637  0.000000000     0.000000000  0.120838260  0.000000000
     0.000000000  0.000000000 32.625095367     0.000000000  0.000000000  0.030651251

  length of vectors
     9.555752754  9.555752754 32.625095367     0.120838260  0.120838260  0.030651251


 FORCES acting on ions
    electron-ion (+dipol)            ewald-force                    non-local-force                 convergence-correction
 -----------------------------------------------------------------------------------------------
   0.702E-01 -.391E-01 0.122E+03   -.128E-01 -.987E-02 -.121E+03   -.393E-01 0.299E-01 -.787E+00   0.488E-05 -.547E-05 -.850E-03
   0.436E+00 -.253E-01 0.565E+02   -.339E+00 -.418E-01 -.566E+02   -.797E-01 0.551E-01 0.772E-01   0.235E-05 -.230E-04 -.561E-02
   0.588E+00 -.264E+01 0.278E+01   -.442E+00 0.264E+01 -.329E+01   -.129E+00 -.147E-01 0.506E+00   -.980E-05 -.303E-04 -.543E-03
   -.450E-01 -.227E-01 0.122E+03   -.141E-01 -.271E-02 -.121E+03   0.116E-01 0.898E-02 -.867E+00   0.986E-05 0.117E-04 -.844E-03
   0.183E+00 -.135E-01 0.566E+02   -.159E+00 0.152E-02 -.567E+02   -.203E-01 0.980E-02 0.678E-01   0.529E-05 0.250E-04 -.561E-02
   -.288E+01 -.420E+01 -.130E+02   0.283E+01 0.415E+01 0.127E+02   0.533E-01 0.322E-01 0.262E+00   0.314E-04 0.236E-04 -.135E-02
   0.208E-01 0.750E-01 0.122E+03   -.111E-01 -.943E-02 -.121E+03   0.110E-01 -.400E-01 -.894E+00   -.542E-06 0.145E-05 -.835E-03
   0.106E+00 0.417E+00 0.563E+02   -.131E+00 -.321E+00 -.565E+02   0.162E-01 -.832E-01 0.146E+00   0.327E-05 0.411E-05 -.560E-02
   -.407E+01 0.261E+01 -.154E+02   0.433E+01 -.234E+01 0.148E+02   -.255E+00 -.261E+00 0.620E+00   -.407E-04 -.430E-05 -.126E-02
   -.476E-01 -.392E-01 0.122E+03   0.710E-02 0.349E-03 -.122E+03   0.273E-01 0.175E-01 -.866E+00   0.146E-05 -.673E-05 -.834E-03
   -.192E+00 -.335E-01 0.569E+02   0.125E+00 -.795E-02 -.570E+02   0.568E-01 0.331E-01 0.138E+00   0.115E-04 -.202E-04 -.561E-02
   0.483E+00 0.105E+01 -.333E+01   -.688E+00 -.116E+01 0.284E+01   0.177E+00 0.851E-01 0.485E+00   -.184E-05 0.121E-04 -.152E-02
   0.312E-01 0.142E-01 0.122E+03   0.596E-02 0.886E-02 -.122E+03   -.292E-01 -.185E-01 -.864E+00   -.658E-06 -.650E-05 -.855E-03
   0.161E+00 -.885E-01 0.572E+02   -.133E+00 0.446E-01 -.572E+02   -.152E-01 0.261E-01 0.360E-01   0.100E-04 0.218E-04 -.559E-02
   0.611E+01 0.443E+01 -.132E+02   -.623E+01 -.518E+01 0.124E+02   0.131E+00 0.751E+00 0.782E+00   0.333E-04 0.116E-03 -.127E-02
   -.543E-01 -.567E-02 0.122E+03   0.610E-02 0.185E-02 -.121E+03   0.354E-01 0.557E-02 -.774E+00   -.707E-05 0.954E-05 -.843E-03
   -.616E-01 0.101E+00 0.570E+02   -.984E-02 -.494E-01 -.570E+02   0.562E-01 -.382E-01 -.503E-02   0.438E-05 0.141E-04 -.560E-02
   0.957E+01 0.628E+01 -.155E+01   -.994E+01 -.611E+01 0.119E+01   0.370E+00 -.183E+00 0.357E+00   0.120E-03 -.660E-04 -.567E-03
   -.204E-01 0.731E-01 0.122E+03   0.572E-02 0.220E-02 -.121E+03   0.113E-01 -.263E-01 -.892E+00   -.670E-05 -.194E-04 -.839E-03
   -.281E+00 -.832E-02 0.565E+02   0.234E+00 0.156E-01 -.567E+02   0.433E-01 -.173E-01 0.141E+00   -.149E-04 -.365E-04 -.561E-02
   -.740E+00 0.580E+00 -.115E+02   0.863E+00 -.560E+00 0.112E+02   -.106E+00 -.232E-01 0.267E+00   0.959E-05 -.634E-04 -.129E-02
   0.714E-01 -.423E-01 0.122E+03   0.821E-02 0.663E-02 -.121E+03   -.330E-01 0.451E-02 -.814E+00   -.890E-05 0.954E-05 -.840E-03
   -.291E+00 -.146E+00 0.566E+02   0.279E+00 0.169E+00 -.567E+02   0.712E-02 -.973E-02 0.883E-01   -.155E-04 0.170E-04 -.560E-02
   -.968E+01 0.237E+01 0.942E+01   0.999E+01 -.299E+01 -.990E+01   -.297E+00 0.582E+00 0.466E+00   -.709E-04 0.622E-04 -.635E-03
   -.676E-01 0.668E-03 0.122E+03   0.500E-02 0.212E-02 -.121E+03   0.484E-01 0.154E-02 -.781E+00   0.771E-05 0.483E-05 -.851E-03
   -.140E+00 -.168E+00 0.566E+02   0.154E+00 0.180E+00 -.566E+02   0.242E-02 -.132E-01 0.626E-02   -.737E-05 -.278E-05 -.558E-02
   0.491E+01 -.149E+02 0.120E+02   -.444E+01 0.148E+02 -.108E+02   -.469E+00 0.915E-01 -.124E+01   -.795E-04 -.578E-04 -.759E-03
   0.121E+00 0.777E-01 0.899E+02   -.995E-01 -.701E-01 -.899E+02   -.165E-01 -.285E-01 -.372E-01   -.535E-05 -.600E-06 -.423E-02
   0.638E+00 0.445E+00 0.233E+02   -.677E+00 -.344E+00 -.235E+02   0.410E-01 -.116E+00 0.165E+00   0.444E-05 0.461E-05 -.426E-02
   0.123E+00 0.642E-02 0.899E+02   -.567E-01 -.766E-02 -.898E+02   -.432E-01 0.180E-01 -.195E-01   -.782E-05 0.207E-04 -.422E-02
   0.542E-01 0.271E+00 0.229E+02   -.563E-01 -.263E+00 -.230E+02   0.437E-02 0.567E-03 0.865E-01   0.425E-05 0.238E-04 -.426E-02
   0.571E-01 0.435E-01 0.899E+02   -.922E-01 -.555E-01 -.898E+02   0.113E-02 0.161E-01 -.738E-01   0.217E-04 -.147E-04 -.422E-02
   0.596E+00 0.184E+00 0.247E+02   -.567E+00 -.209E+00 -.247E+02   -.401E-01 0.189E-01 0.336E-02   0.972E-05 -.201E-04 -.431E-02
   -.243E+00 -.511E-01 0.899E+02   0.162E+00 0.740E-01 -.899E+02   0.750E-01 0.148E-02 -.377E-01   0.157E-04 -.199E-04 -.422E-02
   -.237E+00 0.384E+00 0.252E+02   0.152E+00 -.375E+00 -.254E+02   0.867E-01 -.321E-02 0.205E+00   0.531E-05 0.107E-04 -.428E-02
   -.720E-01 -.123E+00 0.898E+02   0.753E-01 0.118E+00 -.898E+02   0.112E-02 0.150E-01 -.700E-01   -.112E-04 0.156E-04 -.421E-02
   0.115E+01 -.484E+00 0.252E+02   -.104E+01 0.359E+00 -.256E+02   -.984E-01 0.127E+00 0.390E+00   0.107E-04 0.194E-04 -.428E-02
   -.867E-01 -.204E-01 0.899E+02   0.907E-01 0.567E-03 -.899E+02   -.293E-02 -.154E-01 -.272E-01   -.125E-04 -.476E-06 -.421E-02
   -.429E-01 0.449E+00 0.241E+02   0.108E+00 -.457E+00 -.243E+02   -.677E-01 -.655E-02 0.129E+00   0.103E-05 -.196E-04 -.426E-02
   0.103E+00 -.880E-02 0.897E+02   -.722E-01 0.254E-01 -.897E+02   -.352E-01 -.384E-02 -.504E-01   -.107E-04 -.203E-05 -.422E-02
   -.449E+00 -.358E+00 0.245E+02   0.557E+00 0.315E+00 -.246E+02   -.109E+00 0.489E-01 0.188E-01   -.114E-04 -.172E-06 -.428E-02
   0.152E-01 0.426E-01 0.898E+02   -.188E-01 -.443E-01 -.897E+02   -.136E-01 0.436E-04 0.590E-01   0.190E-04 0.226E-05 -.422E-02
   -.134E+01 -.844E-01 0.234E+02   0.130E+01 0.148E+00 -.235E+02   0.441E-01 -.786E-01 0.239E-01   -.176E-04 0.882E-05 -.411E-02
   0.232E-01 0.130E-01 0.898E+02   -.280E-02 -.389E-01 -.897E+02   0.657E-02 0.836E-02 0.147E-01   -.853E-05 -.370E-06 -.422E-02
   -.564E+00 -.855E+00 0.229E+02   0.475E+00 0.854E+00 -.231E+02   0.985E-01 -.465E-02 0.173E+00   -.943E-05 -.292E-04 -.414E-02
   0.862E+01 0.384E+02 -.263E+03   -.177E+02 -.623E+02 0.237E+03   0.912E+01 0.239E+02 0.260E+02   -.161E-04 -.894E-04 0.485E-02
   0.151E+02 0.335E+02 -.423E+03   -.210E+02 -.558E+02 0.459E+03   0.594E+01 0.224E+02 -.361E+02   0.434E-04 0.107E-03 0.579E-02
   0.947E+01 0.294E+01 -.420E+03   -.187E+02 -.326E+02 0.451E+03   0.928E+01 0.296E+02 -.307E+02   0.643E-04 -.535E-04 0.604E-02
   0.165E+02 0.458E+02 -.275E+03   -.385E+02 -.666E+02 0.260E+03   0.220E+02 0.208E+02 0.157E+02   -.282E-03 0.220E-03 0.456E-02
   0.452E+02 -.293E+02 -.244E+03   -.682E+02 0.109E+02 0.235E+03   0.229E+02 0.184E+02 0.915E+01   -.506E-03 -.186E-03 0.364E-02
   0.130E+02 0.742E+02 -.278E+03   -.310E+02 -.100E+03 0.257E+03   0.180E+02 0.259E+02 0.206E+02   0.318E-03 -.326E-03 0.460E-02
   0.391E+02 -.360E+02 -.917E+02   -.444E+02 0.406E+02 0.951E+02   0.528E+01 -.457E+01 -.338E+01   0.153E-04 -.102E-04 0.924E-03
   -.586E+02 -.540E+01 -.972E+02   0.657E+02 0.576E+01 0.101E+03   -.716E+01 -.358E+00 -.376E+01   0.946E-05 0.122E-04 0.934E-03
   -.260E+02 -.647E+02 -.546E+02   0.291E+02 0.720E+02 0.538E+02   -.319E+01 -.731E+01 0.780E+00   0.429E-04 0.136E-03 0.895E-03
   0.216E+02 0.249E+02 0.316E+02   -.236E+02 -.271E+02 -.385E+02   0.201E+01 0.219E+01 0.685E+01   -.329E-04 -.210E-04 0.621E-03
   -.353E+02 -.813E+02 -.700E+02   0.385E+02 0.887E+02 0.707E+02   -.327E+01 -.745E+01 -.658E+00   0.801E-04 0.150E-03 0.992E-03
   0.160E+02 0.616E+01 0.331E+02   -.177E+02 -.707E+01 -.403E+02   0.170E+01 0.901E+00 0.714E+01   -.244E-04 -.196E-04 0.637E-03
   0.169E+02 -.349E+02 -.627E+02   -.188E+02 0.395E+02 0.630E+02   0.186E+01 -.451E+01 -.250E+00   -.549E-04 0.282E-04 0.751E-03
   -.609E+02 0.352E+01 -.107E+03   0.675E+02 -.425E+01 0.112E+03   -.658E+01 0.757E+00 -.471E+01   0.579E-05 0.205E-04 0.941E-03
   -.512E+02 -.512E+02 -.889E+02   0.562E+02 0.563E+02 0.926E+02   -.506E+01 -.510E+01 -.366E+01   0.241E-04 0.496E-04 0.814E-03
   0.506E+01 0.425E+01 -.902E+01   -.502E+01 -.431E+01 0.928E+01   -.449E-01 0.500E-01 -.263E+00   0.304E-04 0.195E-04 -.250E-03
   0.263E+02 -.442E+02 -.890E+02   -.302E+02 0.503E+02 0.922E+02   0.388E+01 -.607E+01 -.319E+01   0.290E-04 -.149E-04 0.903E-03
   -.735E+02 0.677E+01 -.872E+02   0.813E+02 -.727E+01 0.900E+02   -.775E+01 0.491E+00 -.279E+01   0.802E-04 -.493E-04 0.854E-03
 -----------------------------------------------------------------------------------------------
   -.685E+02 -.111E+03 0.668E+01   0.142E-13 0.631E-13 -.867E-12   0.685E+02 0.111E+03 -.660E+01   -.185E-03 -.377E-04 -.105E+00
 
 
 POSITION                                       TOTAL-FORCE (eV/Angst)
 -----------------------------------------------------------------------------------
      0.00000      0.00000      0.00000         0.018261     -0.019242      0.004570
      4.76814      8.27332      5.16318         0.017183     -0.012213      0.001571
      0.00900      0.03898     10.78477         0.016852     -0.012727      0.000479
     -1.59263      2.75851      0.00000        -0.047379     -0.016527     -0.036187
     -1.59412      2.76381      5.13999         0.003788     -0.002228     -0.004185
      7.87295      2.78012     10.18269         0.001456     -0.012853      0.013993
     -3.18525      5.51702      0.00000         0.020824      0.025417     -0.017524
      6.35863      5.51772      5.15243        -0.008165      0.013081     -0.002321
     -3.15023      5.58541     10.23520         0.007953      0.011523      0.005960
      3.18525      0.00000      0.00000        -0.013079     -0.021393     -0.020810
     -1.59389      8.27299      5.12945        -0.009793     -0.008364     -0.001507
      3.12820      0.02456     10.06708        -0.027554     -0.020849     -0.001480
      1.59263      2.75851      0.00000         0.008118      0.004551     -0.032655
      1.58416      2.74513      5.12126         0.013065     -0.017842     -0.016872
      1.50592      2.70550     10.16869         0.014477     -0.002552      0.003058
     -0.00000      5.51702      0.00000        -0.012680      0.001683     -0.023779
     -0.01487      5.52510      5.15194        -0.015130      0.013814     -0.001431
     -0.13696      5.60025     10.75676        -0.003729     -0.014330      0.000097
      6.37050      0.00000      0.00000        -0.003252      0.048963     -0.036407
      1.59417      8.26542      5.14755        -0.004247     -0.010131     -0.001622
      6.39438      0.03592     10.22303         0.016935     -0.003182      0.019711
      4.77788      2.75851      0.00000         0.046705     -0.031174     -0.020722
      4.77020      2.77416      5.18227        -0.004504      0.013100      0.000885
      4.79582      2.62096     10.70606         0.019760     -0.047132     -0.015584
      3.18525      5.51702      0.00000        -0.014035      0.004256     -0.050798
      3.20541      5.52211      5.17122         0.016908     -0.000922     -0.008567
      3.15687      5.52068     10.59172         0.002172     -0.005559      0.028385
      0.00000      1.83901      2.60418         0.004938     -0.020897      0.022815
     -0.03412      1.81475      7.70713         0.001379     -0.014607      0.000712
     -1.59263      4.59751      2.60418         0.023597      0.016669      0.029270
     -1.56112      4.61925      7.71534         0.002415      0.008492      0.009338
     -3.18525      7.35602      2.60418        -0.033779      0.004080     -0.044638
     -3.21760      7.35858      7.65638        -0.011604     -0.006381      0.017734
      3.18525      1.83901      2.60418        -0.005294      0.024249      0.039051
      3.17962      1.88094      7.68870         0.002116      0.005964     -0.004001
      1.59263      4.59751      2.60418         0.004587      0.010604      0.006929
      1.59768      4.60376      7.63802         0.004064      0.002582      0.008919
      0.00000      7.35602      2.60418         0.001205     -0.035231      0.034977
      0.01672      7.31563      7.71682        -0.002652     -0.014885     -0.007777
      6.37050      1.83901      2.60418        -0.004411      0.012663     -0.013721
      6.34199      1.82858      7.67429        -0.001051      0.005733     -0.002672
      4.77788      4.59751      2.60418        -0.016944     -0.001739      0.082545
      4.74820      4.55856      7.87173         0.000939     -0.015103     -0.010901
      3.18525      7.35602      2.60418         0.027084     -0.017584      0.044400
      3.21565      7.31430      7.82548         0.009496     -0.005553     -0.001806
      0.02718      0.00033     12.92328        -0.001571      0.000264      0.007249
     -1.74618      8.04782     13.45053         0.007272      0.008549      0.014491
      7.46734      1.78174     13.57200         0.009974     -0.002617      0.024916
      4.40641      2.53208     12.79114        -0.007184      0.031584     -0.023588
      3.60752      4.89464     12.42145        -0.061929      0.033835      0.061783
      0.08847      5.85276     12.85525         0.004353     -0.004577      0.003126
      8.92654      0.59809     13.36902        -0.001217      0.003383     -0.007068
      0.89003      0.06420     13.39192         0.003314      0.001278     -0.007079
      3.42347      0.67065     13.33100        -0.002586      0.007433     -0.010614
     -2.00077      7.78404     12.52537        -0.005173     -0.007269     -0.006996
      7.85880      2.67780     13.62787         0.004138     -0.001226     -0.009172
      7.25115      1.68713     12.60109        -0.001957     -0.004563     -0.012671
      4.03998      3.53736     12.82456        -0.009606      0.044239     -0.035162
      5.20204      2.46250     13.35963        -0.010920      0.028095     -0.023758
      4.22743      5.50878     12.85876        -0.026778      0.041738      0.045368
      1.46479      4.54474     10.72428         0.002113     -0.008420     -0.003289
     -0.37626      6.62662     13.26533         0.013216     -0.000203     -0.004695
      1.00495      5.81913     13.19917         0.017544     -0.007749     -0.010276
 -----------------------------------------------------------------------------------
    total drift:                               -0.009940      0.004547     -0.024341


--------------------------------------------------------------------------------------------------------



  FREE ENERGIE OF THE ION-ELECTRON SYSTEM (eV)
  ---------------------------------------------------
  free  energy   TOTEN  =       -68.95624259 eV

  energy  without entropy=      -68.95624259  energy(sigma->0) =      -68.95624259
 


--------------------------------------------------------------------------------------------------------


    POTLOK:  cpu time    7.7559: real time    7.7569


--------------------------------------------------------------------------------------------------------


 stress matrix after NEB project (eV)
     -8.71437      0.70620     -0.17758
      0.70620     -8.48072      0.64250
     -0.17758      0.64250      0.68717
  FORCES: max atom, RMS     0.093793    0.023225
  FORCE total and by dimension    0.184341    0.061929
  Stress total and by dimension   12.256478    8.714373
     LOOP+:  cpu time  428.1017: real time  429.7532
 vacuum level on the upper side and lower side of the slab         2.425         3.101
    4ORBIT:  cpu time    0.0000: real time    0.0000
 BZINTS: Fermi energy: -0.738568;138.000000 electrons
         Band energy:-873.917083;  BLOECHL correction: -0.093065

 total amount of memory used by VASP MPI-rank0    62212. kBytes
=======================================================================

   base      :      30000. kBytes
   nonlr-proj:       6309. kBytes
   fftplans  :       6459. kBytes
   grid      :      11407. kBytes
   one-center:         24. kBytes
   wavefun   :       8013. kBytes
 
  
  
 General timing and accounting informations for this job:
 ========================================================
  
                  Total CPU time used (sec):      484.637
                            User time (sec):      476.165
                          System time (sec):        8.472
                         Elapsed time (sec):      495.027
  
                   Maximum memory used (kb):      272752.
                   Average memory used (kb):           0.
  
                          Minor page faults:       228171
                          Major page faults:            0
                 Voluntary context switches:        47947
