<?xml version="1.0" encoding="ISO-8859-1"?>
<modeling>
 <generator>
  <i name="program" type="string">vasp </i>
  <i name="version" type="string">5.4.4.18Apr17-6-g9f103f2a35  </i>
  <i name="subversion" type="string">(build Jun 08 2018 12:06:12) complex            parallel </i>
  <i name="platform" type="string">LinuxIFC </i>
  <i name="date" type="string">2019 06 06 </i>
  <i name="time" type="string">07:30:48 </i>
 </generator>
 <incar>
  <i type="string" name="SYSTEM"> Mg_slab_in_a_box</i>
  <i type="string" name="PREC">accurate</i>
  <i type="string" name="ALGO"> V</i>
  <i type="int" name="NELM">   300</i>
  <i type="int" name="NELMIN">     6</i>
  <i name="EDIFF">      0.00000500</i>
  <i name="ENCUT">    520.00000000</i>
  <i type="string" name="LREAL"> AUTO</i>
  <i type="logical" name="LPLANE"> T  </i>
  <i type="int" name="ISMEAR">    -5</i>
  <i type="logical" name="LWAVE"> F  </i>
  <i type="logical" name="LCHARG"> T  </i>
  <i type="logical" name="LVTOT"> T  </i>
  <i type="logical" name="LVHAR"> T  </i>
  <i type="logical" name="LSCALU"> F  </i>
  <i type="logical" name="LASPH"> T  </i>
  <i type="logical" name="LAECHG"> T  </i>
  <v type="int" name="KPOINT_BSE">    -1     0     0     0</v>
  <i type="int" name="NELM">   300</i>
  <i type="string" name="GGA"> BO</i>
  <i name="PARAM1">      0.18333333</i>
  <i name="PARAM2">      0.22000000</i>
  <i type="logical" name="LUSE_VDW"> T  </i>
  <i name="AGGAC">      0.00000000</i>
  <i type="logical" name="LDIPOL"> T  </i>
  <i type="int" name="IDIPOL">     3</i>
  <i type="logical" name="LASPH"> T  </i>
 </incar>
 <structure name="primitive_cell" >
  <crystal>
   <varray name="basis" >
    <v>       9.55575275       0.00000000       0.00000000 </v>
    <v>      -4.77787638       8.27552464       0.00000000 </v>
    <v>       0.00000000       0.00000000      32.62509537 </v>
   </varray>
   <i name="volume">   2579.95558872 </i>
   <varray name="rec_basis" >
    <v>       0.10464900       0.06041913       0.00000000 </v>
    <v>       0.00000000       0.12083826       0.00000000 </v>
    <v>       0.00000000       0.00000000       0.03065125 </v>
   </varray>
  </crystal>
  <varray name="positions" >
   <v>       0.00000000       0.00000000       0.00000000 </v>
   <v>       0.00000002      -0.33333328       0.00000000 </v>
   <v>      -0.33333330      -0.33333328       0.00000000 </v>
   <v>      -0.33333332       0.00000000       0.00000000 </v>
   <v>       0.33333334       0.00000000       0.00000000 </v>
   <v>       0.00000001       0.33333336       0.00000000 </v>
   <v>       0.33333335       0.33333336       0.00000000 </v>
   <v>      -0.22222216      -0.11111106       0.07982145 </v>
   <v>       0.11111116      -0.11111106       0.07982145 </v>
   <v>       0.11111113       0.22222222       0.07982145 </v>
   <v>      -0.22222219      -0.44444439       0.07982145 </v>
   <v>      -0.22222221       0.22222222       0.07982145 </v>
   <v>       0.44444450       0.22222222       0.07982145 </v>
   <v>      -0.00115235      -0.00026672       0.15825798 </v>
   <v>       0.33333336      -0.33333328       0.00000000 </v>
   <v>      -0.33333332       0.33333336       0.00000000 </v>
   <v>       0.44444450      -0.44444439       0.07982145 </v>
   <v>       0.44444451      -0.11111106       0.07982145 </v>
   <v>       0.11111114      -0.44444439       0.07982145 </v>
   <v>       0.33163938       0.33171625       0.15697304 </v>
   <v>       0.33304721      -0.00030687       0.15722396 </v>
   <v>       0.00016432       0.33397435       0.15754704 </v>
   <v>      -0.33378254      -0.00122109       0.15777888 </v>
   <v>      -0.00120009      -0.33324840       0.15792855 </v>
   <v>      -0.33091610      -0.33271803       0.15850436 </v>
   <v>       0.33226517      -0.33235690       0.15791338 </v>
   <v>      -0.33319155       0.33522407       0.15884321 </v>
   <v>       0.10788018      -0.11080245       0.23467749 </v>
   <v>       0.10607424       0.21929074       0.23623316 </v>
   <v>      -0.22156202      -0.11615321       0.23986060 </v>
   <v>      -0.22583556       0.22096285       0.23522648 </v>
   <v>       0.44638883       0.22728955       0.23566818 </v>
   <v>      -0.22768122      -0.44915103       0.24127838 </v>
   <v>       0.44535074      -0.44368917       0.23411473 </v>
   <v>       0.44375346      -0.11599231       0.23653025 </v>
   <v>       0.11572101      -0.44181828       0.23648485 </v>
   <v>       0.32884725       0.00296750       0.30856875 </v>
   <v>       0.32105632       0.32692761       0.31168298 </v>
   <v>      -0.00813146       0.33594467       0.31211225 </v>
   <v>      -0.32866419       0.00434057       0.31334853 </v>
   <v>       0.00779726      -0.32506893       0.31372178 </v>
   <v>       0.00329711       0.00471036       0.33056660 </v>
   <v>      -0.33608144      -0.33289017       0.32464941 </v>
   <v>       0.42787823      -0.45082125       0.32871272 </v>
   <v>      -0.33976630       0.31671279       0.32815417 </v>
   <v>       0.32402994      -0.32327538       0.32970821 </v>
   <v>       0.26092642      -0.05939033       0.38391813 </v>
   <v>      -0.13923895       0.20387037       0.38623918 </v>
   <v>       0.00286479       0.00004012       0.39611457 </v>
   <v>      -0.32674639      -0.40854013       0.38073291 </v>
   <v>      -0.22476764      -0.33432810       0.39413712 </v>
   <v>      -0.02971030       0.07227159       0.40977723 </v>
   <v>       0.09701914       0.00775729       0.41047922 </v>
   <v>      -0.36349560       0.42744894       0.39308890 </v>
   <v>      -0.38588782       0.30597257       0.39206451 </v>
   <v>       0.39878250       0.08103981       0.40861189 </v>
   <v>       0.30350586      -0.02751559       0.41227547 </v>
   <v>      -0.11089896       0.21530283       0.41599879 </v>
   <v>       0.36287689      -0.29276267       0.39402942 </v>
   <v>       0.45675414      -0.29682633       0.40457095 </v>
   <v>      -0.01579382       0.32358018       0.41771141 </v>
   <v>       0.36099998      -0.19925029       0.40659890 </v>
   <v>      -0.30682940       0.29756437       0.40948945 </v>
  </varray>
 </structure>
 <varray name="primitive_index" >
  <v type="int" >        1 </v>
  <v type="int" >        7 </v>
  <v type="int" >       25 </v>
  <v type="int" >       19 </v>
  <v type="int" >       10 </v>
  <v type="int" >        4 </v>
  <v type="int" >       13 </v>
  <v type="int" >       44 </v>
  <v type="int" >       32 </v>
  <v type="int" >       28 </v>
  <v type="int" >       42 </v>
  <v type="int" >       40 </v>
  <v type="int" >       34 </v>
  <v type="int" >        2 </v>
  <v type="int" >       16 </v>
  <v type="int" >       22 </v>
  <v type="int" >       36 </v>
  <v type="int" >       38 </v>
  <v type="int" >       30 </v>
  <v type="int" >       14 </v>
  <v type="int" >       11 </v>
  <v type="int" >        5 </v>
  <v type="int" >       20 </v>
  <v type="int" >        8 </v>
  <v type="int" >       26 </v>
  <v type="int" >       17 </v>
  <v type="int" >       23 </v>
  <v type="int" >       33 </v>
  <v type="int" >       29 </v>
  <v type="int" >       45 </v>
  <v type="int" >       41 </v>
  <v type="int" >       35 </v>
  <v type="int" >       43 </v>
  <v type="int" >       37 </v>
  <v type="int" >       39 </v>
  <v type="int" >       31 </v>
  <v type="int" >       12 </v>
  <v type="int" >       15 </v>
  <v type="int" >        6 </v>
  <v type="int" >       21 </v>
  <v type="int" >        9 </v>
  <v type="int" >        3 </v>
  <v type="int" >       27 </v>
  <v type="int" >       61 </v>
  <v type="int" >       24 </v>
  <v type="int" >       18 </v>
  <v type="int" >       55 </v>
  <v type="int" >       57 </v>
  <v type="int" >       46 </v>
  <v type="int" >       50 </v>
  <v type="int" >       60 </v>
  <v type="int" >       52 </v>
  <v type="int" >       53 </v>
  <v type="int" >       58 </v>
  <v type="int" >       49 </v>
  <v type="int" >       54 </v>
  <v type="int" >       47 </v>
  <v type="int" >       48 </v>
  <v type="int" >       51 </v>
  <v type="int" >       63 </v>
  <v type="int" >       56 </v>
  <v type="int" >       62 </v>
  <v type="int" >       59 </v>
 </varray>
 <kpoints>
  <generation param="Gamma">
   <v type="int" name="divisions">       3        3        1 </v>
   <v name="usershift">      0.00000000       0.00000000       0.00000000 </v>
   <v name="genvec1">      0.33333333       0.00000000       0.00000000 </v>
   <v name="genvec2">      0.00000000       0.33333333       0.00000000 </v>
   <v name="genvec3">      0.00000000       0.00000000       1.00000000 </v>
   <v name="shift">      0.00000000       0.00000000       0.00000000 </v>
  </generation>
  <varray name="kpointlist" >
   <v>       0.00000000       0.00000000       0.00000000 </v>
   <v>       0.33333333      -0.00000000       0.00000000 </v>
   <v>       0.00000000       0.33333333       0.00000000 </v>
   <v>       0.33333333       0.33333333       0.00000000 </v>
   <v>      -0.33333333       0.33333333       0.00000000 </v>
  </varray>
  <varray name="weights" >
   <v>       0.11111111 </v>
   <v>       0.22222222 </v>
   <v>       0.22222222 </v>
   <v>       0.22222222 </v>
   <v>       0.22222222 </v>
  </varray>
  <varray name="tetrahedronlist"  type="int" >
   <v type="int" >        2        2        3        3        4 </v>
   <v type="int" >        2        1        2        3        3 </v>
   <v type="int" >        2        1        1        2        3 </v>
   <v type="int" >        2        2        3        4        4 </v>
   <v type="int" >        2        2        2        3        4 </v>
   <v type="int" >        2        1        2        2        3 </v>
   <v type="int" >        2        2        4        4        5 </v>
   <v type="int" >        2        2        2        4        4 </v>
   <v type="int" >        4        2        2        2        4 </v>
   <v type="int" >        2        2        4        5        5 </v>
   <v type="int" >        2        2        2        4        5 </v>
   <v type="int" >        2        1        3        5        5 </v>
   <v type="int" >        2        1        2        5        5 </v>
   <v type="int" >        2        1        2        2        5 </v>
   <v type="int" >        2        1        3        3        5 </v>
   <v type="int" >        2        1        1        3        5 </v>
   <v type="int" >        2        1        1        2        5 </v>
   <v type="int" >        2        3        3        4        5 </v>
   <v type="int" >        4        3        3        3        4 </v>
   <v type="int" >        2        3        4        5        5 </v>
   <v type="int" >        2        3        4        4        5 </v>
   <v type="int" >        2        3        3        4        4 </v>
   <v type="int" >        4        4        5        5        5 </v>
   <v type="int" >        2        4        4        5        5 </v>
  </varray>
  <i name="volumeweight">      0.01851852 </i>
 </kpoints>
 <parameters>
  <separator name="general" >
   <i type="string" name="SYSTEM">Mg_slab_in_a_box</i>
   <i type="logical" name="LCOMPAT"> F  </i>
  </separator>
  <separator name="electronic" >
   <i type="string" name="PREC">accura</i>
   <i name="ENMAX">    520.00000000</i>
   <i name="ENAUG">    605.39200000</i>
   <i name="EDIFF">      0.00000500</i>
   <i type="int" name="IALGO">    48</i>
   <i type="int" name="IWAVPR">    10</i>
   <i type="int" name="NBANDS">   102</i>
   <i name="NELECT">    138.00000000</i>
   <i type="int" name="TURBO">     0</i>
   <i type="int" name="IRESTART">     0</i>
   <i type="int" name="NREBOOT">     0</i>
   <i type="int" name="NMIN">     0</i>
   <i name="EREF">      0.00000000</i>
   <separator name="electronic smearing" >
    <i type="int" name="ISMEAR">    -5</i>
    <i name="SIGMA">      0.20000000</i>
    <i name="KSPACING">      0.50000000</i>
    <i type="logical" name="KGAMMA"> T  </i>
   </separator>
   <separator name="electronic projectors" >
    <i type="logical" name="LREAL"> T  </i>
    <v name="ROPT">     -0.00025000     -0.00025000     -0.00025000</v>
    <i type="int" name="LMAXPAW">  -100</i>
    <i type="int" name="LMAXMIX">     2</i>
    <i type="logical" name="NLSPLINE"> F  </i>
   </separator>
   <separator name="electronic startup" >
    <i type="int" name="ISTART">     0</i>
    <i type="int" name="ICHARG">     2</i>
    <i type="int" name="INIWAV">     1</i>
   </separator>
   <separator name="electronic spin" >
    <i type="int" name="ISPIN">     1</i>
    <i type="logical" name="LNONCOLLINEAR"> F  </i>
    <v name="MAGMOM">      1.00000000      1.00000000      1.00000000      1.00000000      1.00000000      1.00000000      1.00000000      1.00000000      1.00000000      1.00000000      1.00000000      1.00000000      1.00000000      1.00000000      1.00000000      1.00000000      1.00000000      1.00000000      1.00000000      1.00000000
      1.00000000      1.00000000      1.00000000      1.00000000      1.00000000      1.00000000      1.00000000      1.00000000      1.00000000      1.00000000      1.00000000      1.00000000      1.00000000      1.00000000      1.00000000      1.00000000      1.00000000      1.00000000      1.00000000      1.00000000
      1.00000000      1.00000000      1.00000000      1.00000000      1.00000000      1.00000000      1.00000000      1.00000000      1.00000000      1.00000000      1.00000000      1.00000000      1.00000000      1.00000000      1.00000000      1.00000000      1.00000000      1.00000000      1.00000000      1.00000000
      1.00000000      1.00000000      1.00000000</v>
    <i name="NUPDOWN">     -1.00000000</i>
    <i type="logical" name="LSORBIT"> F  </i>
    <v name="SAXIS">      0.00000000      0.00000000      1.00000000</v>
    <i type="logical" name="LSPIRAL"> F  </i>
    <v name="QSPIRAL">      0.00000000      0.00000000      0.00000000</v>
    <i type="logical" name="LZEROZ"> F  </i>
   </separator>
   <separator name="electronic exchange-correlation" >
    <i type="logical" name="LASPH"> T  </i>
    <i type="logical" name="LMETAGGA"> F  </i>
   </separator>
   <separator name="electronic convergence" >
    <i type="int" name="NELM">   300</i>
    <i type="int" name="NELMDL">   -12</i>
    <i type="int" name="NELMIN">     6</i>
    <i name="ENINI">    520.00000000</i>
    <separator name="electronic convergence detail" >
     <i type="logical" name="LDIAG"> T  </i>
     <i type="logical" name="LSUBROT"> F  </i>
     <i name="WEIMIN">      0.00000000</i>
     <i name="EBREAK">      0.00000001</i>
     <i name="DEPER">      0.30000000</i>
     <i type="int" name="NRMM">     4</i>
     <i name="TIME">      0.40000000</i>
    </separator>
   </separator>
   <separator name="electronic mixer" >
    <i name="AMIX">      0.40000000</i>
    <i name="BMIX">      1.00000000</i>
    <i name="AMIN">      0.10000000</i>
    <i name="AMIX_MAG">      1.60000000</i>
    <i name="BMIX_MAG">      1.00000000</i>
    <separator name="electronic mixer details" >
     <i type="int" name="IMIX">     4</i>
     <i type="logical" name="MIXFIRST"> F  </i>
     <i type="int" name="MAXMIX">   -45</i>
     <i name="WC">    100.00000000</i>
     <i type="int" name="INIMIX">     1</i>
     <i type="int" name="MIXPRE">     1</i>
     <i type="int" name="MREMOVE">     5</i>
    </separator>
   </separator>
   <separator name="electronic dipolcorrection" >
    <i type="logical" name="LDIPOL"> T  </i>
    <i type="logical" name="LMONO"> F  </i>
    <i type="int" name="IDIPOL">     3</i>
    <i name="EPSILON">      1.00000000</i>
    <v name="DIPOL">   -100.00000000   -100.00000000   -100.00000000</v>
    <i name="EFIELD">      0.00000000</i>
   </separator>
  </separator>
  <separator name="grids" >
   <i type="int" name="NGX">    72</i>
   <i type="int" name="NGY">    72</i>
   <i type="int" name="NGZ">   250</i>
   <i type="int" name="NGXF">   144</i>
   <i type="int" name="NGYF">   144</i>
   <i type="int" name="NGZF">   500</i>
   <i type="logical" name="ADDGRID"> F  </i>
  </separator>
  <separator name="ionic" >
   <i type="int" name="NSW">     0</i>
   <i type="int" name="IBRION">    -1</i>
   <i type="int" name="MDALGO">     0</i>
   <i type="int" name="ISIF">     2</i>
   <i name="PSTRESS">      0.00000000</i>
   <i name="EDIFFG">      0.00005000</i>
   <i type="int" name="NFREE">     0</i>
   <i name="POTIM">      0.50000000</i>
   <i name="SMASS">     -3.00000000</i>
   <i name="SCALEE">      1.00000000</i>
  </separator>
  <separator name="ionic md" >
   <i name="TEBEG">      0.00010000</i>
   <i name="TEEND">      0.00010000</i>
   <i type="int" name="NBLOCK">     1</i>
   <i type="int" name="KBLOCK">     1</i>
   <i type="int" name="NPACO">   256</i>
   <i name="APACO">     16.00000000</i>
  </separator>
  <separator name="symmetry" >
   <i type="int" name="ISYM">     2</i>
   <i name="SYMPREC">      0.00001000</i>
  </separator>
  <separator name="dos" >
   <i type="int" name="LORBIT">     0</i>
   <v name="RWIGS">     -1.00000000     -1.00000000     -1.00000000</v>
   <i type="int" name="NEDOS">   301</i>
   <i name="EMIN">     10.00000000</i>
   <i name="EMAX">    -10.00000000</i>
   <i name="EFERMI">      0.00000000</i>
  </separator>
  <separator name="writing" >
   <i type="int" name="NWRITE">     2</i>
   <i type="logical" name="LWAVE"> F  </i>
   <i type="logical" name="LDOWNSAMPLE"> F  </i>
   <i type="logical" name="LCHARG"> T  </i>
   <i type="logical" name="LPARD"> F  </i>
   <i type="logical" name="LVTOT"> F  </i>
   <i type="logical" name="LVHAR"> T  </i>
   <i type="logical" name="LELF"> F  </i>
   <i type="logical" name="LOPTICS"> F  </i>
   <v name="STM">      0.00000000      0.00000000      0.00000000      0.00000000      0.00000000      0.00000000      0.00000000</v>
  </separator>
  <separator name="performance" >
   <i type="int" name="NPAR">     3</i>
   <i type="int" name="NSIM">     4</i>
   <i type="int" name="NBLK">    -1</i>
   <i type="logical" name="LPLANE"> T  </i>
   <i type="logical" name="LSCALAPACK"> T  </i>
   <i type="logical" name="LSCAAWARE"> F  </i>
   <i type="logical" name="LSCALU"> F  </i>
   <i type="logical" name="LASYNC"> F  </i>
   <i type="logical" name="LORBITALREAL"> F  </i>
  </separator>
  <separator name="miscellaneous" >
   <i type="int" name="IDIOT">     3</i>
   <i type="int" name="ISPECIAL">     0</i>
   <i type="logical" name="LMUSIC"> F  </i>
   <v name="POMASS">     24.30500000     16.00000000      1.00000000</v>
   <v name="DARWINR">      0.00000000      0.00000000      0.00000000</v>
   <v name="DARWINV">      1.00000000      1.00000000      1.00000000</v>
   <i type="logical" name="LCORR"> T  </i>
  </separator>
  <i type="logical" name="GGA_COMPAT"> T  </i>
  <i type="logical" name="LBERRY"> F  </i>
  <i type="int" name="ICORELEVEL">     0</i>
  <i type="logical" name="LDAU"> F  </i>
  <i type="int" name="I_CONSTRAINED_M">     0</i>
  <separator name="electronic exchange-correlation" >
   <i type="string" name="GGA">BO</i>
   <i type="int" name="VOSKOWN">     0</i>
   <i type="logical" name="LHFCALC"> F  </i>
   <i type="string" name="PRECFOCK"></i>
   <i type="logical" name="LSYMGRAD"> F  </i>
   <i type="logical" name="LHFONE"> F  </i>
   <i type="logical" name="LRHFCALC"> F  </i>
   <i type="logical" name="LTHOMAS"> F  </i>
   <i type="logical" name="LMODELHF"> F  </i>
   <i name="ENCUT4O">     -1.00000000</i>
   <i type="int" name="EXXOEP">     0</i>
   <i type="int" name="FOURORBIT">     0</i>
   <i name="AEXX">      0.00000000</i>
   <i name="HFALPHA">      0.00000000</i>
   <i name="MCALPHA">      0.00000000</i>
   <i name="ALDAX">      1.00000000</i>
   <i name="AGGAX">      1.00000000</i>
   <i name="ALDAC">      1.00000000</i>
   <i name="AGGAC">      0.00000000</i>
   <i type="int" name="NKREDX">     1</i>
   <i type="int" name="NKREDY">     1</i>
   <i type="int" name="NKREDZ">     1</i>
   <i type="logical" name="SHIFTRED"> F  </i>
   <i type="logical" name="ODDONLY"> F  </i>
   <i type="logical" name="EVENONLY"> F  </i>
   <i type="int" name="LMAXFOCK">     0</i>
   <i type="int" name="NMAXFOCKAE">     0</i>
   <i type="logical" name="LFOCKAEDFT"> F  </i>
   <i name="HFSCREEN">      0.00000000</i>
   <i name="HFSCREENC">      0.00000000</i>
   <i type="int" name="NBANDSGWLOW">     0</i>
  </separator>
  <separator name="vdW DFT" >
   <i type="logical" name="LUSE_VDW"> T  </i>
   <i name="Zab_VDW">     -0.84910000</i>
   <i name="PARAM1">      0.18333333</i>
   <i name="PARAM2">      0.22000000</i>
   <i name="PARAM3">      0.00000000</i>
  </separator>
  <separator name="model GW" >
   <i type="int" name="MODEL_GW">     0</i>
   <i name="MODEL_EPS0">     24.57100561</i>
   <i name="MODEL_ALPHA">      1.00000000</i>
  </separator>
  <separator name="linear response parameters" >
   <i type="logical" name="LEPSILON"> F  </i>
   <i type="logical" name="LRPA"> F  </i>
   <i type="logical" name="LNABLA"> F  </i>
   <i type="logical" name="LVEL"> F  </i>
   <i type="int" name="KINTER">     0</i>
   <i name="CSHIFT">      0.10000000</i>
   <i name="OMEGAMAX">     -1.00000000</i>
   <i name="DEG_THRESHOLD">      0.00200000</i>
   <i name="RTIME">     -0.10000000</i>
   <i name="WPLASMAI">      0.00000000</i>
   <v name="DFIELD">      0.00000000      0.00000000      0.00000000</v>
   <v name="WPLASMA">      0.00000000      0.00000000      0.00000000      0.00000000      0.00000000      0.00000000      0.00000000      0.00000000      0.00000000</v>
  </separator>
  <separator name="orbital magnetization" >
   <i type="logical" name="NUCIND"> F  </i>
   <v name="MAGPOS">      0.00000000      0.00000000      0.00000000</v>
   <i type="logical" name="LNICSALL"> T  </i>
   <i type="logical" name="ORBITALMAG"> F  </i>
   <i type="logical" name="LMAGBLOCH"> F  </i>
   <i type="logical" name="LCHIMAG"> F  </i>
   <i type="logical" name="LGAUGE"> T  </i>
   <i type="int" name="MAGATOM">     0</i>
   <v name="MAGDIPOL">      0.00000000      0.00000000      0.00000000</v>
   <v name="AVECCONST">      0.00000000      0.00000000      0.00000000</v>
  </separator>
  <separator name="response functions" >
   <i type="logical" name="LADDER"> F  </i>
   <i type="logical" name="LRPAFORCE"> F  </i>
   <i type="logical" name="LFXC"> F  </i>
   <i type="logical" name="LHARTREE"> T  </i>
   <i type="int" name="IBSE">     0</i>
   <v type="int" name="KPOINT">    -1     0     0     0</v>
   <i type="logical" name="LTCTE"> F  </i>
   <i type="logical" name="LTETE"> F  </i>
   <i type="logical" name="LTRIPLET"> F  </i>
   <i type="logical" name="LFXCEPS"> F  </i>
   <i type="logical" name="LFXHEG"> F  </i>
   <i type="int" name="NATURALO">     2</i>
   <i type="logical" name="L2ORDER"> F  </i>
   <i type="logical" name="LMP2LT"> F  </i>
   <i type="logical" name="LUSEW"> F  </i>
   <i name="ENCUTGW">     -2.00000000</i>
   <i name="ENCUTGWSOFT">     -2.00000000</i>
   <i name="ENCUTLF">     -1.00000000</i>
   <i type="int" name="LMAXMP2">    -1</i>
   <i name="SCISSOR">      0.00000000</i>
   <i type="int" name="NOMEGA">     0</i>
   <i type="int" name="NOMEGAR">     0</i>
   <i type="int" name="NBANDSGW">    -1</i>
   <i type="int" name="NBANDSO">    -1</i>
   <i type="int" name="NBANDSV">    -1</i>
   <i type="int" name="NELM">   300</i>
   <i type="int" name="NELMHF">     1</i>
   <i type="int" name="DIM">     3</i>
   <i type="int" name="ANTIRES">     0</i>
   <i name="OMEGAMAX">    -30.00000000</i>
   <i name="OMEGAMIN">    -30.00000000</i>
   <i name="OMEGATL">   -200.00000000</i>
   <i type="int" name="OMEGAGRID">   140</i>
   <i name="CSHIFT">     -0.10000000</i>
   <i type="logical" name="SELFENERGY"> F  </i>
   <i type="logical" name="LSPECTRAL"> F  </i>
   <i type="logical" name="LSPECTRALGW"> F  </i>
   <i type="logical" name="LSINGLES"> F  </i>
   <i type="logical" name="LFERMIGW"> F  </i>
   <i type="logical" name="ODDONLYGW"> F  </i>
   <i type="logical" name="EVENONLYGW"> F  </i>
   <i type="int" name="NKREDLFX">     1</i>
   <i type="int" name="NKREDLFY">     1</i>
   <i type="int" name="NKREDLFZ">     1</i>
   <i type="int" name="MAXMEM">  2800</i>
   <i type="int" name="TELESCOPE">     0</i>
   <i type="int" name="TAUPAR">     1</i>
   <i type="int" name="OMEGAPAR">    -1</i>
   <i name="LAMBDA">      1.00000000</i>
  </separator>
  <separator name="External order field" >
   <i name="OFIELD_KAPPA">      0.00000000</i>
   <v name="OFIELD_K">      0.00000000      0.00000000      0.00000000</v>
   <i name="OFIELD_Q6_NEAR">      0.00000000</i>
   <i name="OFIELD_Q6_FAR">      0.00000000</i>
   <i name="OFIELD_A">      0.00000000</i>
  </separator>
 </parameters>
 <atominfo>
  <atoms>      63 </atoms>
  <types>       3 </types>
  <array name="atoms" >
   <dimension dim="1">ion</dimension>
   <field type="string">element</field>
   <field type="int">atomtype</field>
   <set>
    <rc><c>Mg</c><c>   1</c></rc>
    <rc><c>Mg</c><c>   1</c></rc>
    <rc><c>Mg</c><c>   1</c></rc>
    <rc><c>Mg</c><c>   1</c></rc>
    <rc><c>Mg</c><c>   1</c></rc>
    <rc><c>Mg</c><c>   1</c></rc>
    <rc><c>Mg</c><c>   1</c></rc>
    <rc><c>Mg</c><c>   1</c></rc>
    <rc><c>Mg</c><c>   1</c></rc>
    <rc><c>Mg</c><c>   1</c></rc>
    <rc><c>Mg</c><c>   1</c></rc>
    <rc><c>Mg</c><c>   1</c></rc>
    <rc><c>Mg</c><c>   1</c></rc>
    <rc><c>Mg</c><c>   1</c></rc>
    <rc><c>Mg</c><c>   1</c></rc>
    <rc><c>Mg</c><c>   1</c></rc>
    <rc><c>Mg</c><c>   1</c></rc>
    <rc><c>Mg</c><c>   1</c></rc>
    <rc><c>Mg</c><c>   1</c></rc>
    <rc><c>Mg</c><c>   1</c></rc>
    <rc><c>Mg</c><c>   1</c></rc>
    <rc><c>Mg</c><c>   1</c></rc>
    <rc><c>Mg</c><c>   1</c></rc>
    <rc><c>Mg</c><c>   1</c></rc>
    <rc><c>Mg</c><c>   1</c></rc>
    <rc><c>Mg</c><c>   1</c></rc>
    <rc><c>Mg</c><c>   1</c></rc>
    <rc><c>Mg</c><c>   1</c></rc>
    <rc><c>Mg</c><c>   1</c></rc>
    <rc><c>Mg</c><c>   1</c></rc>
    <rc><c>Mg</c><c>   1</c></rc>
    <rc><c>Mg</c><c>   1</c></rc>
    <rc><c>Mg</c><c>   1</c></rc>
    <rc><c>Mg</c><c>   1</c></rc>
    <rc><c>Mg</c><c>   1</c></rc>
    <rc><c>Mg</c><c>   1</c></rc>
    <rc><c>Mg</c><c>   1</c></rc>
    <rc><c>Mg</c><c>   1</c></rc>
    <rc><c>Mg</c><c>   1</c></rc>
    <rc><c>Mg</c><c>   1</c></rc>
    <rc><c>Mg</c><c>   1</c></rc>
    <rc><c>Mg</c><c>   1</c></rc>
    <rc><c>Mg</c><c>   1</c></rc>
    <rc><c>Mg</c><c>   1</c></rc>
    <rc><c>Mg</c><c>   1</c></rc>
    <rc><c>O </c><c>   2</c></rc>
    <rc><c>O </c><c>   2</c></rc>
    <rc><c>O </c><c>   2</c></rc>
    <rc><c>O </c><c>   2</c></rc>
    <rc><c>O </c><c>   2</c></rc>
    <rc><c>O </c><c>   2</c></rc>
    <rc><c>H </c><c>   3</c></rc>
    <rc><c>H </c><c>   3</c></rc>
    <rc><c>H </c><c>   3</c></rc>
    <rc><c>H </c><c>   3</c></rc>
    <rc><c>H </c><c>   3</c></rc>
    <rc><c>H </c><c>   3</c></rc>
    <rc><c>H </c><c>   3</c></rc>
    <rc><c>H </c><c>   3</c></rc>
    <rc><c>H </c><c>   3</c></rc>
    <rc><c>H </c><c>   3</c></rc>
    <rc><c>H </c><c>   3</c></rc>
    <rc><c>H </c><c>   3</c></rc>
   </set>
  </array>
  <array name="atomtypes" >
   <dimension dim="1">type</dimension>
   <field type="int">atomspertype</field>
   <field type="string">element</field>
   <field>mass</field>
   <field>valence</field>
   <field type="string">pseudopotential</field>
   <set>
    <rc><c>  45</c><c>Mg</c><c>     24.30500000</c><c>      2.00000000</c><c>  PAW_PBE Mg 13Apr2007                  </c></rc>
    <rc><c>   6</c><c>O </c><c>     16.00000000</c><c>      6.00000000</c><c>  PAW_PBE O 08Apr2002                   </c></rc>
    <rc><c>  12</c><c>H </c><c>      1.00000000</c><c>      1.00000000</c><c>  PAW_PBE H 15Jun2001                   </c></rc>
   </set>
  </array>
 </atominfo>
 <structure name="initialpos" >
  <crystal>
   <varray name="basis" >
    <v>       9.55575275       0.00000000       0.00000000 </v>
    <v>      -4.77787638       8.27552464       0.00000000 </v>
    <v>       0.00000000       0.00000000      32.62509537 </v>
   </varray>
   <i name="volume">   2579.95558872 </i>
   <varray name="rec_basis" >
    <v>       0.10464900       0.06041913       0.00000000 </v>
    <v>       0.00000000       0.12083826       0.00000000 </v>
    <v>       0.00000000       0.00000000       0.03065125 </v>
   </varray>
  </crystal>
  <varray name="positions" >
   <v>       0.00000000       0.00000000       0.00000000 </v>
   <v>       0.99884765       0.99973328       0.15825798 </v>
   <v>       0.00329711       0.00471036       0.33056660 </v>
   <v>       0.00000001       0.33333336       0.00000000 </v>
   <v>       0.00016432       0.33397435       0.15754704 </v>
   <v>       0.99186854       0.33594467       0.31211225 </v>
   <v>       0.00000002       0.66666672       0.00000000 </v>
   <v>       0.99879991       0.66675160       0.15792855 </v>
   <v>       0.00779726       0.67493107       0.31372178 </v>
   <v>       0.33333334       0.00000000       0.00000000 </v>
   <v>       0.33304721       0.99969313       0.15722396 </v>
   <v>       0.32884725       0.00296750       0.30856875 </v>
   <v>       0.33333335       0.33333336       0.00000000 </v>
   <v>       0.33163938       0.33171625       0.15697304 </v>
   <v>       0.32105632       0.32692761       0.31168298 </v>
   <v>       0.33333336       0.66666672       0.00000000 </v>
   <v>       0.33226517       0.66764310       0.15791338 </v>
   <v>       0.32402994       0.67672462       0.32970821 </v>
   <v>       0.66666668       0.00000000       0.00000000 </v>
   <v>       0.66621746       0.99877891       0.15777888 </v>
   <v>       0.67133581       0.00434057       0.31334853 </v>
   <v>       0.66666668       0.33333336       0.00000000 </v>
   <v>       0.66680845       0.33522407       0.15884321 </v>
   <v>       0.66023370       0.31671279       0.32815417 </v>
   <v>       0.66666670       0.66666672       0.00000000 </v>
   <v>       0.66908390       0.66728197       0.15850436 </v>
   <v>       0.66391856       0.66710983       0.32464941 </v>
   <v>       0.11111113       0.22222222       0.07982145 </v>
   <v>       0.10607424       0.21929074       0.23623316 </v>
   <v>       0.11111114       0.55555561       0.07982145 </v>
   <v>       0.11572101       0.55818172       0.23648485 </v>
   <v>       0.11111116       0.88888894       0.07982145 </v>
   <v>       0.10788018       0.88919755       0.23467749 </v>
   <v>       0.44444450       0.22222222       0.07982145 </v>
   <v>       0.44638883       0.22728955       0.23566818 </v>
   <v>       0.44444450       0.55555561       0.07982145 </v>
   <v>       0.44535074       0.55631083       0.23411473 </v>
   <v>       0.44444451       0.88888894       0.07982145 </v>
   <v>       0.44375346       0.88400769       0.23653025 </v>
   <v>       0.77777779       0.22222222       0.07982145 </v>
   <v>       0.77416444       0.22096285       0.23522648 </v>
   <v>       0.77777781       0.55555561       0.07982145 </v>
   <v>       0.77231878       0.55084897       0.24127838 </v>
   <v>       0.77777784       0.88888894       0.07982145 </v>
   <v>       0.77843798       0.88384679       0.23986060 </v>
   <v>       0.00286479       0.00004012       0.39611457 </v>
   <v>       0.30350586       0.97248441       0.41227547 </v>
   <v>       0.88910104       0.21530283       0.41599879 </v>
   <v>       0.61411218       0.30597257       0.39206451 </v>
   <v>       0.67325361       0.59145987       0.38073291 </v>
   <v>       0.36287689       0.70723733       0.39402942 </v>
   <v>       0.97028970       0.07227159       0.40977723 </v>
   <v>       0.09701914       0.00775729       0.41047922 </v>
   <v>       0.39878250       0.08103981       0.40861189 </v>
   <v>       0.26092642       0.94060967       0.38391813 </v>
   <v>       0.98420618       0.32358018       0.41771141 </v>
   <v>       0.86076105       0.20387037       0.38623918 </v>
   <v>       0.63650440       0.42744894       0.39308890 </v>
   <v>       0.69317060       0.29756437       0.40948945 </v>
   <v>       0.77523236       0.66567190       0.39413712 </v>
   <v>       0.42787823       0.54917875       0.32871272 </v>
   <v>       0.36099998       0.80074971       0.40659890 </v>
   <v>       0.45675414       0.70317367       0.40457095 </v>
  </varray>
  <varray name="selective"  type="logical" >
   <v type="logical" >  F  F  F </v>
   <v type="logical" >  T  T  T </v>
   <v type="logical" >  T  T  T </v>
   <v type="logical" >  F  F  F </v>
   <v type="logical" >  T  T  T </v>
   <v type="logical" >  T  T  T </v>
   <v type="logical" >  F  F  F </v>
   <v type="logical" >  T  T  T </v>
   <v type="logical" >  T  T  T </v>
   <v type="logical" >  F  F  F </v>
   <v type="logical" >  T  T  T </v>
   <v type="logical" >  T  T  T </v>
   <v type="logical" >  F  F  F </v>
   <v type="logical" >  T  T  T </v>
   <v type="logical" >  T  T  T </v>
   <v type="logical" >  F  F  F </v>
   <v type="logical" >  T  T  T </v>
   <v type="logical" >  T  T  T </v>
   <v type="logical" >  F  F  F </v>
   <v type="logical" >  T  T  T </v>
   <v type="logical" >  T  T  T </v>
   <v type="logical" >  F  F  F </v>
   <v type="logical" >  T  T  T </v>
   <v type="logical" >  T  T  T </v>
   <v type="logical" >  F  F  F </v>
   <v type="logical" >  T  T  T </v>
   <v type="logical" >  T  T  T </v>
   <v type="logical" >  F  F  F </v>
   <v type="logical" >  T  T  T </v>
   <v type="logical" >  F  F  F </v>
   <v type="logical" >  T  T  T </v>
   <v type="logical" >  F  F  F </v>
   <v type="logical" >  T  T  T </v>
   <v type="logical" >  F  F  F </v>
   <v type="logical" >  T  T  T </v>
   <v type="logical" >  F  F  F </v>
   <v type="logical" >  T  T  T </v>
   <v type="logical" >  F  F  F </v>
   <v type="logical" >  T  T  T </v>
   <v type="logical" >  F  F  F </v>
   <v type="logical" >  T  T  T </v>
   <v type="logical" >  F  F  F </v>
   <v type="logical" >  T  T  T </v>
   <v type="logical" >  F  F  F </v>
   <v type="logical" >  T  T  T </v>
   <v type="logical" >  T  T  T </v>
   <v type="logical" >  T  T  T </v>
   <v type="logical" >  T  T  T </v>
   <v type="logical" >  T  T  T </v>
   <v type="logical" >  T  T  T </v>
   <v type="logical" >  T  T  T </v>
   <v type="logical" >  T  T  T </v>
   <v type="logical" >  T  T  T </v>
   <v type="logical" >  T  T  T </v>
   <v type="logical" >  T  T  T </v>
   <v type="logical" >  T  T  T </v>
   <v type="logical" >  T  T  T </v>
   <v type="logical" >  T  T  T </v>
   <v type="logical" >  T  T  T </v>
   <v type="logical" >  T  T  T </v>
   <v type="logical" >  T  T  T </v>
   <v type="logical" >  T  T  T </v>
   <v type="logical" >  T  T  T </v>
  </varray>
  <nose>
   <v>      -3.00000000       0.00000000       0.00010000       0.00010000 </v>
  </nose>
 </structure>
 <calculation>
  <scstep>
   <time name="diag">    2.70    2.71</time>
   <time name="diis">    2.19    2.20</time>
   <time name="orth">    0.99    0.99</time>
   <time name="total">   16.34   16.72</time>
   <dipole>
    <v name="dipole">      0.00000000       0.00000000      -0.00030929 </v>
    <i name="Tr[quadrupol]">  -1884.04332968 </i>
    <i name="Echarged">      0.00000000 </i>
    <i name="Edipol_quadrupol">      0.00000000 </i>
    <i name="Eion">      0.00000000 </i>
   </dipole>
   <energy>
    <i name="alphaZ">     63.16242238 </i>
    <i name="ewald">  13012.84918454 </i>
    <i name="hartreedc"> -16240.10846503 </i>
    <i name="XCdc">  -2051.07470169 </i>
    <i name="pawpsdc">   5135.15659847 </i>
    <i name="pawaedc">  -2719.01140655 </i>
    <i name="eentropy">      0.00000000 </i>
    <i name="bandstr">    213.94748507 </i>
    <i name="atom">   3827.98814510 </i>
    <i name="e_fr_energy">   1242.90926231 </i>
    <i name="e_wo_entrp">   1242.90926231 </i>
    <i name="e_0_energy">   1242.90926231 </i>
   </energy>
  </scstep>
  <scstep>
   <time name="diag">    2.72    2.74</time>
   <time name="diis">    2.15    2.15</time>
   <time name="orth">    0.55    0.55</time>
   <time name="total">    5.41    5.43</time>
   <dipole>
    <v name="dipole">      0.00000000       0.00000000      -0.00030929 </v>
    <i name="Tr[quadrupol]">  -1884.04332968 </i>
    <i name="Echarged">      0.00000000 </i>
    <i name="Edipol_quadrupol">      0.00000000 </i>
    <i name="Eion">      0.00000000 </i>
   </dipole>
   <energy>
    <i name="e_fr_energy">    544.15918820 </i>
    <i name="e_wo_entrp">    544.15918820 </i>
    <i name="e_0_energy">    544.15918820 </i>
   </energy>
  </scstep>
  <scstep>
   <time name="diag">    1.30    1.32</time>
   <time name="diis">    1.32    1.32</time>
   <time name="orth">    0.41    0.41</time>
   <time name="total">    3.03    3.06</time>
   <dipole>
    <v name="dipole">      0.00000000       0.00000000      -0.00030929 </v>
    <i name="Tr[quadrupol]">  -1884.04332968 </i>
    <i name="Echarged">      0.00000000 </i>
    <i name="Edipol_quadrupol">      0.00000000 </i>
    <i name="Eion">      0.00000000 </i>
   </dipole>
   <energy>
    <i name="e_fr_energy">    309.79550345 </i>
    <i name="e_wo_entrp">    309.79550345 </i>
    <i name="e_0_energy">    309.79550345 </i>
   </energy>
  </scstep>
  <scstep>
   <time name="diag">    1.44    1.46</time>
   <time name="diis">    1.51    1.51</time>
   <time name="orth">    0.56    0.56</time>
   <time name="total">    3.52    3.54</time>
   <dipole>
    <v name="dipole">      0.00000000       0.00000000      -0.00030929 </v>
    <i name="Tr[quadrupol]">  -1884.04332968 </i>
    <i name="Echarged">      0.00000000 </i>
    <i name="Edipol_quadrupol">      0.00000000 </i>
    <i name="Eion">      0.00000000 </i>
   </dipole>
   <energy>
    <i name="e_fr_energy">    138.40566826 </i>
    <i name="e_wo_entrp">    138.40566826 </i>
    <i name="e_0_energy">    138.40566826 </i>
   </energy>
  </scstep>
  <scstep>
   <time name="diag">    1.48    1.51</time>
   <time name="diis">    1.43    1.43</time>
   <time name="orth">    0.47    0.47</time>
   <time name="total">    3.39    3.41</time>
   <dipole>
    <v name="dipole">      0.00000000       0.00000000      -0.00030929 </v>
    <i name="Tr[quadrupol]">  -1884.04332968 </i>
    <i name="Echarged">      0.00000000 </i>
    <i name="Edipol_quadrupol">      0.00000000 </i>
    <i name="Eion">      0.00000000 </i>
   </dipole>
   <energy>
    <i name="e_fr_energy">     22.65418830 </i>
    <i name="e_wo_entrp">     22.65418830 </i>
    <i name="e_0_energy">     22.65418830 </i>
   </energy>
  </scstep>
  <scstep>
   <time name="diag">    1.42    1.44</time>
   <time name="diis">    1.45    1.45</time>
   <time name="orth">    0.48    0.48</time>
   <time name="total">    3.35    3.37</time>
   <dipole>
    <v name="dipole">      0.00000000       0.00000000      -0.00030929 </v>
    <i name="Tr[quadrupol]">  -1884.04332968 </i>
    <i name="Echarged">      0.00000000 </i>
    <i name="Edipol_quadrupol">      0.00000000 </i>
    <i name="Eion">      0.00000000 </i>
   </dipole>
   <energy>
    <i name="e_fr_energy">    -41.82174367 </i>
    <i name="e_wo_entrp">    -41.82174367 </i>
    <i name="e_0_energy">    -41.82174367 </i>
   </energy>
  </scstep>
  <scstep>
   <time name="diag">    1.35    1.37</time>
   <time name="diis">    1.61    1.61</time>
   <time name="orth">    0.64    0.64</time>
   <time name="total">    3.61    3.63</time>
   <dipole>
    <v name="dipole">      0.00000000       0.00000000      -0.00030929 </v>
    <i name="Tr[quadrupol]">  -1884.04332968 </i>
    <i name="Echarged">      0.00000000 </i>
    <i name="Edipol_quadrupol">      0.00000000 </i>
    <i name="Eion">      0.00000000 </i>
   </dipole>
   <energy>
    <i name="e_fr_energy">    -70.09014155 </i>
    <i name="e_wo_entrp">    -70.09014155 </i>
    <i name="e_0_energy">    -70.09014155 </i>
   </energy>
  </scstep>
  <scstep>
   <time name="diag">    2.07    2.10</time>
   <time name="diis">    2.19    2.19</time>
   <time name="orth">    1.00    1.00</time>
   <time name="total">    5.27    5.29</time>
   <dipole>
    <v name="dipole">      0.00000000       0.00000000      -0.00030929 </v>
    <i name="Tr[quadrupol]">  -1884.04332968 </i>
    <i name="Echarged">      0.00000000 </i>
    <i name="Edipol_quadrupol">      0.00000000 </i>
    <i name="Eion">      0.00000000 </i>
   </dipole>
   <energy>
    <i name="e_fr_energy">    -78.11889897 </i>
    <i name="e_wo_entrp">    -78.11889897 </i>
    <i name="e_0_energy">    -78.11889897 </i>
   </energy>
  </scstep>
  <scstep>
   <time name="diag">    2.66    2.68</time>
   <time name="diis">    5.13    5.13</time>
   <time name="orth">    0.98    0.98</time>
   <time name="total">    8.77    8.80</time>
   <dipole>
    <v name="dipole">      0.00000000       0.00000000      -0.00030929 </v>
    <i name="Tr[quadrupol]">  -1884.04332968 </i>
    <i name="Echarged">      0.00000000 </i>
    <i name="Edipol_quadrupol">      0.00000000 </i>
    <i name="Eion">      0.00000000 </i>
   </dipole>
   <energy>
    <i name="e_fr_energy">    -80.40672994 </i>
    <i name="e_wo_entrp">    -80.40672994 </i>
    <i name="e_0_energy">    -80.40672994 </i>
   </energy>
  </scstep>
  <scstep>
   <time name="diag">    2.70    2.71</time>
   <time name="diis">    5.96    5.96</time>
   <time name="orth">    1.01    1.01</time>
   <time name="total">    9.67    9.69</time>
   <dipole>
    <v name="dipole">      0.00000000       0.00000000      -0.00030929 </v>
    <i name="Tr[quadrupol]">  -1884.04332968 </i>
    <i name="Echarged">      0.00000000 </i>
    <i name="Edipol_quadrupol">      0.00000000 </i>
    <i name="Eion">      0.00000000 </i>
   </dipole>
   <energy>
    <i name="e_fr_energy">    -80.68785432 </i>
    <i name="e_wo_entrp">    -80.68785432 </i>
    <i name="e_0_energy">    -80.68785432 </i>
   </energy>
  </scstep>
  <scstep>
   <time name="diag">    2.68    2.69</time>
   <time name="diis">    5.82    5.82</time>
   <time name="orth">    0.98    0.98</time>
   <time name="total">    9.49    9.51</time>
   <dipole>
    <v name="dipole">      0.00000000       0.00000000      -0.00030929 </v>
    <i name="Tr[quadrupol]">  -1884.04332968 </i>
    <i name="Echarged">      0.00000000 </i>
    <i name="Edipol_quadrupol">      0.00000000 </i>
    <i name="Eion">      0.00000000 </i>
   </dipole>
   <energy>
    <i name="e_fr_energy">    -80.68764180 </i>
    <i name="e_wo_entrp">    -80.68764180 </i>
    <i name="e_0_energy">    -80.68764180 </i>
   </energy>
  </scstep>
  <scstep>
   <time name="diag">    2.65    2.67</time>
   <time name="diis">    5.94    5.95</time>
   <time name="orth">    0.42    0.42</time>
   <time name="total">    9.30    9.32</time>
   <dipole>
    <v name="dipole">      0.00000000       0.00000000      -0.00030929 </v>
    <i name="Tr[quadrupol]">  -1884.04332968 </i>
    <i name="Echarged">      0.00000000 </i>
    <i name="Edipol_quadrupol">      0.00000000 </i>
    <i name="Eion">      0.00000000 </i>
   </dipole>
   <energy>
    <i name="e_fr_energy">    -80.69048984 </i>
    <i name="e_wo_entrp">    -80.69048984 </i>
    <i name="e_0_energy">    -80.69048984 </i>
   </energy>
  </scstep>
  <scstep>
   <time name="diag">    1.43    1.43</time>
   <time name="diis">    3.38    3.38</time>
   <time name="orth">    0.46    0.46</time>
   <time name="total">   12.89   12.91</time>
   <dipole>
    <v name="dipole">      0.00000000       0.00000000       0.56924243 </v>
    <i name="Tr[quadrupol]">  -1895.66737209 </i>
    <i name="Echarged">      0.00000000 </i>
    <i name="Edipol_quadrupol">      0.00000000 </i>
    <i name="Eion">      0.00000000 </i>
   </dipole>
   <energy>
    <i name="e_fr_energy">    -70.83633770 </i>
    <i name="e_wo_entrp">    -70.83633770 </i>
    <i name="e_0_energy">    -70.83633770 </i>
   </energy>
  </scstep>
  <scstep>
   <time name="diag">    2.59    2.59</time>
   <time name="diis">    5.52    5.52</time>
   <time name="orth">    1.06    1.06</time>
   <time name="total">   17.29   17.31</time>
   <dipole>
    <v name="dipole">      0.00000000       0.00000000      -2.07055976 </v>
    <i name="Tr[quadrupol]">  -1880.43825390 </i>
    <i name="Echarged">      0.00000000 </i>
    <i name="Edipol_quadrupol">      0.00000000 </i>
    <i name="Eion">      0.00000000 </i>
   </dipole>
   <energy>
    <i name="e_fr_energy">    -96.87893316 </i>
    <i name="e_wo_entrp">    -96.87893316 </i>
    <i name="e_0_energy">    -96.87893316 </i>
   </energy>
  </scstep>
  <scstep>
   <time name="diag">    2.69    2.69</time>
   <time name="diis">    5.11    5.11</time>
   <time name="orth">    1.04    1.04</time>
   <time name="total">   19.20   19.23</time>
   <dipole>
    <v name="dipole">      0.00000000       0.00000000       0.10635241 </v>
    <i name="Tr[quadrupol]">  -1893.21087256 </i>
    <i name="Echarged">      0.00000000 </i>
    <i name="Edipol_quadrupol">      0.00000000 </i>
    <i name="Eion">      0.00000000 </i>
   </dipole>
   <energy>
    <i name="e_fr_energy">    -69.32858990 </i>
    <i name="e_wo_entrp">    -69.32858990 </i>
    <i name="e_0_energy">    -69.32858990 </i>
   </energy>
  </scstep>
  <scstep>
   <time name="diag">    2.26    2.26</time>
   <time name="diis">    3.53    3.53</time>
   <time name="orth">    0.40    0.40</time>
   <time name="total">   16.34   16.36</time>
   <dipole>
    <v name="dipole">      0.00000000       0.00000000       0.12792711 </v>
    <i name="Tr[quadrupol]">  -1898.41254432 </i>
    <i name="Echarged">      0.00000000 </i>
    <i name="Edipol_quadrupol">      0.00000000 </i>
    <i name="Eion">      0.00000000 </i>
   </dipole>
   <energy>
    <i name="e_fr_energy">    -69.31883431 </i>
    <i name="e_wo_entrp">    -69.31883431 </i>
    <i name="e_0_energy">    -69.31883431 </i>
   </energy>
  </scstep>
  <scstep>
   <time name="diag">    1.42    1.42</time>
   <time name="diis">    3.11    3.11</time>
   <time name="orth">    0.38    0.38</time>
   <time name="total">   12.77   12.79</time>
   <dipole>
    <v name="dipole">      0.00000000       0.00000000      -0.22375873 </v>
    <i name="Tr[quadrupol]">  -1896.82079856 </i>
    <i name="Echarged">      0.00000000 </i>
    <i name="Edipol_quadrupol">      0.00000000 </i>
    <i name="Eion">      0.00000000 </i>
   </dipole>
   <energy>
    <i name="e_fr_energy">    -68.99112562 </i>
    <i name="e_wo_entrp">    -68.99112562 </i>
    <i name="e_0_energy">    -68.99112562 </i>
   </energy>
  </scstep>
  <scstep>
   <time name="diag">    2.63    2.63</time>
   <time name="diis">    5.43    5.43</time>
   <time name="orth">    1.02    1.03</time>
   <time name="total">   18.64   18.66</time>
   <dipole>
    <v name="dipole">      0.00000000       0.00000000      -0.27406271 </v>
    <i name="Tr[quadrupol]">  -1897.64446496 </i>
    <i name="Echarged">      0.00000000 </i>
    <i name="Edipol_quadrupol">      0.00000000 </i>
    <i name="Eion">      0.00000000 </i>
   </dipole>
   <energy>
    <i name="e_fr_energy">    -68.96905667 </i>
    <i name="e_wo_entrp">    -68.96905667 </i>
    <i name="e_0_energy">    -68.96905667 </i>
   </energy>
  </scstep>
  <scstep>
   <time name="diag">    2.62    2.62</time>
   <time name="diis">    4.70    4.70</time>
   <time name="orth">    0.99    0.99</time>
   <time name="total">   18.76   18.79</time>
   <dipole>
    <v name="dipole">      0.00000000       0.00000000      -0.29875965 </v>
    <i name="Tr[quadrupol]">  -1898.77808809 </i>
    <i name="Echarged">      0.00000000 </i>
    <i name="Edipol_quadrupol">      0.00000000 </i>
    <i name="Eion">      0.00000000 </i>
   </dipole>
   <energy>
    <i name="e_fr_energy">    -68.96766118 </i>
    <i name="e_wo_entrp">    -68.96766118 </i>
    <i name="e_0_energy">    -68.96766118 </i>
   </energy>
  </scstep>
  <scstep>
   <time name="diag">    1.19    1.19</time>
   <time name="diis">    3.46    3.46</time>
   <time name="orth">    0.48    0.48</time>
   <time name="total">   14.45   14.48</time>
   <dipole>
    <v name="dipole">      0.00000000       0.00000000      -0.32263579 </v>
    <i name="Tr[quadrupol]">  -1899.23228925 </i>
    <i name="Echarged">      0.00000000 </i>
    <i name="Edipol_quadrupol">      0.00000000 </i>
    <i name="Eion">      0.00000000 </i>
   </dipole>
   <energy>
    <i name="e_fr_energy">    -68.96691565 </i>
    <i name="e_wo_entrp">    -68.96691565 </i>
    <i name="e_0_energy">    -68.96691565 </i>
   </energy>
  </scstep>
  <scstep>
   <time name="diag">    1.26    1.26</time>
   <time name="diis">    4.47    4.47</time>
   <time name="orth">    1.00    1.00</time>
   <time name="total">   14.69   14.71</time>
   <dipole>
    <v name="dipole">      0.00000000       0.00000000      -0.32445580 </v>
    <i name="Tr[quadrupol]">  -1899.88935578 </i>
    <i name="Echarged">      0.00000000 </i>
    <i name="Edipol_quadrupol">      0.00000000 </i>
    <i name="Eion">      0.00000000 </i>
   </dipole>
   <energy>
    <i name="e_fr_energy">    -68.96225681 </i>
    <i name="e_wo_entrp">    -68.96225681 </i>
    <i name="e_0_energy">    -68.96225681 </i>
   </energy>
  </scstep>
  <scstep>
   <time name="diag">    2.70    2.70</time>
   <time name="diis">    5.26    5.26</time>
   <time name="orth">    1.00    1.00</time>
   <time name="total">   19.20   19.23</time>
   <dipole>
    <v name="dipole">      0.00000000       0.00000000      -0.32143038 </v>
    <i name="Tr[quadrupol]">  -1900.04412664 </i>
    <i name="Echarged">      0.00000000 </i>
    <i name="Edipol_quadrupol">      0.00000000 </i>
    <i name="Eion">      0.00000000 </i>
   </dipole>
   <energy>
    <i name="e_fr_energy">    -68.95783027 </i>
    <i name="e_wo_entrp">    -68.95783027 </i>
    <i name="e_0_energy">    -68.95783027 </i>
   </energy>
  </scstep>
  <scstep>
   <time name="diag">    2.65    2.65</time>
   <time name="diis">    4.39    4.39</time>
   <time name="orth">    0.80    0.80</time>
   <time name="total">   18.06   18.09</time>
   <dipole>
    <v name="dipole">      0.00000000       0.00000000      -0.31710045 </v>
    <i name="Tr[quadrupol]">  -1900.24236190 </i>
    <i name="Echarged">      0.00000000 </i>
    <i name="Edipol_quadrupol">      0.00000000 </i>
    <i name="Eion">      0.00000000 </i>
   </dipole>
   <energy>
    <i name="e_fr_energy">    -68.95419058 </i>
    <i name="e_wo_entrp">    -68.95419058 </i>
    <i name="e_0_energy">    -68.95419058 </i>
   </energy>
  </scstep>
  <scstep>
   <time name="diag">    1.47    1.47</time>
   <time name="diis">    2.98    2.98</time>
   <time name="orth">    0.52    0.52</time>
   <time name="total">   12.93   12.96</time>
   <dipole>
    <v name="dipole">      0.00000000       0.00000000      -0.30818288 </v>
    <i name="Tr[quadrupol]">  -1900.47543704 </i>
    <i name="Echarged">      0.00000000 </i>
    <i name="Edipol_quadrupol">      0.00000000 </i>
    <i name="Eion">      0.00000000 </i>
   </dipole>
   <energy>
    <i name="e_fr_energy">    -68.95563168 </i>
    <i name="e_wo_entrp">    -68.95563168 </i>
    <i name="e_0_energy">    -68.95563168 </i>
   </energy>
  </scstep>
  <scstep>
   <time name="diag">    1.98    1.98</time>
   <time name="diis">    3.82    3.82</time>
   <time name="orth">    1.01    1.01</time>
   <time name="total">   14.92   14.95</time>
   <dipole>
    <v name="dipole">      0.00000000       0.00000000      -0.30230801 </v>
    <i name="Tr[quadrupol]">  -1900.58123954 </i>
    <i name="Echarged">      0.00000000 </i>
    <i name="Edipol_quadrupol">      0.00000000 </i>
    <i name="Eion">      0.00000000 </i>
   </dipole>
   <energy>
    <i name="e_fr_energy">    -68.95633358 </i>
    <i name="e_wo_entrp">    -68.95633358 </i>
    <i name="e_0_energy">    -68.95633358 </i>
   </energy>
  </scstep>
  <scstep>
   <time name="diag">    2.66    2.66</time>
   <time name="diis">    3.77    3.77</time>
   <time name="orth">    1.01    1.01</time>
   <time name="total">   17.75   17.77</time>
   <dipole>
    <v name="dipole">      0.00000000       0.00000000      -0.29732736 </v>
    <i name="Tr[quadrupol]">  -1900.63592981 </i>
    <i name="Echarged">      0.00000000 </i>
    <i name="Edipol_quadrupol">      0.00000000 </i>
    <i name="Eion">      0.00000000 </i>
   </dipole>
   <energy>
    <i name="e_fr_energy">    -68.95615663 </i>
    <i name="e_wo_entrp">    -68.95615663 </i>
    <i name="e_0_energy">    -68.95615663 </i>
   </energy>
  </scstep>
  <scstep>
   <time name="diag">    2.65    2.65</time>
   <time name="diis">    3.53    3.53</time>
   <time name="orth">    0.88    0.88</time>
   <time name="total">   17.39   17.42</time>
   <dipole>
    <v name="dipole">      0.00000000       0.00000000      -0.29525354 </v>
    <i name="Tr[quadrupol]">  -1900.63454851 </i>
    <i name="Echarged">      0.00000000 </i>
    <i name="Edipol_quadrupol">      0.00000000 </i>
    <i name="Eion">      0.00000000 </i>
   </dipole>
   <energy>
    <i name="e_fr_energy">    -68.95614070 </i>
    <i name="e_wo_entrp">    -68.95614070 </i>
    <i name="e_0_energy">    -68.95614070 </i>
   </energy>
  </scstep>
  <scstep>
   <time name="diag">    1.61    1.61</time>
   <time name="diis">    2.43    2.43</time>
   <time name="orth">    0.52    0.52</time>
   <time name="total">   12.36   12.38</time>
   <dipole>
    <v name="dipole">      0.00000000       0.00000000      -0.29419422 </v>
    <i name="Tr[quadrupol]">  -1900.62982066 </i>
    <i name="Echarged">      0.00000000 </i>
    <i name="Edipol_quadrupol">      0.00000000 </i>
    <i name="Eion">      0.00000000 </i>
   </dipole>
   <energy>
    <i name="e_fr_energy">    -68.95616651 </i>
    <i name="e_wo_entrp">    -68.95616651 </i>
    <i name="e_0_energy">    -68.95616651 </i>
   </energy>
  </scstep>
  <scstep>
   <time name="diag">    1.58    1.58</time>
   <time name="diis">    2.17    2.17</time>
   <time name="orth">    0.84    0.84</time>
   <time name="total">   12.63   12.66</time>
   <dipole>
    <v name="dipole">      0.00000000       0.00000000      -0.29421192 </v>
    <i name="Tr[quadrupol]">  -1900.51058431 </i>
    <i name="Echarged">      0.00000000 </i>
    <i name="Edipol_quadrupol">      0.00000000 </i>
    <i name="Eion">      0.00000000 </i>
   </dipole>
   <energy>
    <i name="e_fr_energy">    -68.95617960 </i>
    <i name="e_wo_entrp">    -68.95617960 </i>
    <i name="e_0_energy">    -68.95617960 </i>
   </energy>
  </scstep>
  <scstep>
   <time name="diag">    2.64    2.64</time>
   <time name="diis">    3.07    3.07</time>
   <time name="orth">    1.00    1.00</time>
   <time name="total">   16.31   16.33</time>
   <dipole>
    <v name="dipole">      0.00000000       0.00000000      -0.29401741 </v>
    <i name="Tr[quadrupol]">  -1900.89211420 </i>
    <i name="Echarged">      0.00000000 </i>
    <i name="Edipol_quadrupol">      0.00000000 </i>
    <i name="Eion">      0.00000000 </i>
   </dipole>
   <energy>
    <i name="e_fr_energy">    -68.95620359 </i>
    <i name="e_wo_entrp">    -68.95620359 </i>
    <i name="e_0_energy">    -68.95620359 </i>
   </energy>
  </scstep>
  <scstep>
   <time name="diag">    2.65    2.65</time>
   <time name="diis">    2.88    2.88</time>
   <time name="orth">    1.02    1.02</time>
   <time name="total">   16.88   16.91</time>
   <dipole>
    <v name="dipole">      0.00000000       0.00000000      -0.29469731 </v>
    <i name="Tr[quadrupol]">  -1900.96620698 </i>
    <i name="Echarged">      0.00000000 </i>
    <i name="Edipol_quadrupol">      0.00000000 </i>
    <i name="Eion">      0.00000000 </i>
   </dipole>
   <energy>
    <i name="e_fr_energy">    -68.95624745 </i>
    <i name="e_wo_entrp">    -68.95624745 </i>
    <i name="e_0_energy">    -68.95624745 </i>
   </energy>
  </scstep>
  <scstep>
   <time name="diag">    1.20    1.20</time>
   <time name="diis">    1.93    1.93</time>
   <time name="orth">    0.47    0.47</time>
   <time name="total">   13.22   13.24</time>
   <dipole>
    <v name="dipole">      0.00000000       0.00000000      -0.29496866 </v>
    <i name="Tr[quadrupol]">  -1900.96722360 </i>
    <i name="Echarged">      0.00000000 </i>
    <i name="Edipol_quadrupol">      0.00000000 </i>
    <i name="Eion">      0.00000000 </i>
   </dipole>
   <energy>
    <i name="alphaZ">     64.08171838 </i>
    <i name="ewald">  13012.84918454 </i>
    <i name="hartreedc"> -16478.91632282 </i>
    <i name="XCdc">  -2034.73592614 </i>
    <i name="pawpsdc">   5959.80888114 </i>
    <i name="pawaedc">  -3546.11484004 </i>
    <i name="eentropy">      0.00000000 </i>
    <i name="bandstr">   -873.91708276 </i>
    <i name="atom">   3827.98814510 </i>
    <i name="e_fr_energy">    -68.95624259 </i>
    <i name="e_wo_entrp">    -68.95624259 </i>
    <i name="e_0_energy">    -68.95624259 </i>
   </energy>
  </scstep>
  <structure>
   <crystal>
    <varray name="basis" >
     <v>       9.55575275       0.00000000       0.00000000 </v>
     <v>      -4.77787638       8.27552464       0.00000000 </v>
     <v>       0.00000000       0.00000000      32.62509537 </v>
    </varray>
    <i name="volume">   2579.95558872 </i>
    <varray name="rec_basis" >
     <v>       0.10464900       0.06041913       0.00000000 </v>
     <v>       0.00000000       0.12083826       0.00000000 </v>
     <v>       0.00000000       0.00000000       0.03065125 </v>
    </varray>
   </crystal>
   <varray name="positions" >
    <v>       0.00000000       0.00000000       0.00000000 </v>
    <v>       0.99884765       0.99973328       0.15825798 </v>
    <v>       0.00329711       0.00471036       0.33056660 </v>
    <v>       0.00000001       0.33333336       0.00000000 </v>
    <v>       0.00016432       0.33397435       0.15754704 </v>
    <v>       0.99186854       0.33594467       0.31211225 </v>
    <v>       0.00000002       0.66666672       0.00000000 </v>
    <v>       0.99879991       0.66675160       0.15792855 </v>
    <v>       0.00779726       0.67493107       0.31372178 </v>
    <v>       0.33333334       0.00000000       0.00000000 </v>
    <v>       0.33304721       0.99969313       0.15722396 </v>
    <v>       0.32884725       0.00296750       0.30856875 </v>
    <v>       0.33333335       0.33333336       0.00000000 </v>
    <v>       0.33163938       0.33171625       0.15697304 </v>
    <v>       0.32105632       0.32692761       0.31168298 </v>
    <v>       0.33333336       0.66666672       0.00000000 </v>
    <v>       0.33226517       0.66764310       0.15791338 </v>
    <v>       0.32402994       0.67672462       0.32970821 </v>
    <v>       0.66666668       0.00000000       0.00000000 </v>
    <v>       0.66621746       0.99877891       0.15777888 </v>
    <v>       0.67133581       0.00434057       0.31334853 </v>
    <v>       0.66666668       0.33333336       0.00000000 </v>
    <v>       0.66680845       0.33522407       0.15884321 </v>
    <v>       0.66023370       0.31671279       0.32815417 </v>
    <v>       0.66666670       0.66666672       0.00000000 </v>
    <v>       0.66908390       0.66728197       0.15850436 </v>
    <v>       0.66391856       0.66710983       0.32464941 </v>
    <v>       0.11111113       0.22222222       0.07982145 </v>
    <v>       0.10607424       0.21929074       0.23623316 </v>
    <v>       0.11111114       0.55555561       0.07982145 </v>
    <v>       0.11572101       0.55818172       0.23648485 </v>
    <v>       0.11111116       0.88888894       0.07982145 </v>
    <v>       0.10788018       0.88919755       0.23467749 </v>
    <v>       0.44444450       0.22222222       0.07982145 </v>
    <v>       0.44638883       0.22728955       0.23566818 </v>
    <v>       0.44444450       0.55555561       0.07982145 </v>
    <v>       0.44535074       0.55631083       0.23411473 </v>
    <v>       0.44444451       0.88888894       0.07982145 </v>
    <v>       0.44375346       0.88400769       0.23653025 </v>
    <v>       0.77777779       0.22222222       0.07982145 </v>
    <v>       0.77416444       0.22096285       0.23522648 </v>
    <v>       0.77777781       0.55555561       0.07982145 </v>
    <v>       0.77231878       0.55084897       0.24127838 </v>
    <v>       0.77777784       0.88888894       0.07982145 </v>
    <v>       0.77843798       0.88384679       0.23986060 </v>
    <v>       0.00286479       0.00004012       0.39611457 </v>
    <v>       0.30350586       0.97248441       0.41227547 </v>
    <v>       0.88910104       0.21530283       0.41599879 </v>
    <v>       0.61411218       0.30597257       0.39206451 </v>
    <v>       0.67325361       0.59145987       0.38073291 </v>
    <v>       0.36287689       0.70723733       0.39402942 </v>
    <v>       0.97028970       0.07227159       0.40977723 </v>
    <v>       0.09701914       0.00775729       0.41047922 </v>
    <v>       0.39878250       0.08103981       0.40861189 </v>
    <v>       0.26092642       0.94060967       0.38391813 </v>
    <v>       0.98420618       0.32358018       0.41771141 </v>
    <v>       0.86076105       0.20387037       0.38623918 </v>
    <v>       0.63650440       0.42744894       0.39308890 </v>
    <v>       0.69317060       0.29756437       0.40948945 </v>
    <v>       0.77523236       0.66567190       0.39413712 </v>
    <v>       0.42787823       0.54917875       0.32871272 </v>
    <v>       0.36099998       0.80074971       0.40659890 </v>
    <v>       0.45675414       0.70317367       0.40457095 </v>
   </varray>
  </structure>
  <varray name="forces" >
   <v>       0.01826104      -0.01924178       0.00457033 </v>
   <v>       0.01718257      -0.01221300       0.00157119 </v>
   <v>       0.01685245      -0.01272672       0.00047947 </v>
   <v>      -0.04737948      -0.01652693      -0.03618738 </v>
   <v>       0.00378786      -0.00222774      -0.00418453 </v>
   <v>       0.00145612      -0.01285335       0.01399303 </v>
   <v>       0.02082444       0.02541654      -0.01752424 </v>
   <v>      -0.00816472       0.01308105      -0.00232056 </v>
   <v>       0.00795307       0.01152272       0.00596035 </v>
   <v>      -0.01307883      -0.02139274      -0.02080961 </v>
   <v>      -0.00979278      -0.00836426      -0.00150662 </v>
   <v>      -0.02755372      -0.02084864      -0.00147964 </v>
   <v>       0.00811767       0.00455074      -0.03265481 </v>
   <v>       0.01306482      -0.01784168      -0.01687198 </v>
   <v>       0.01447670      -0.00255153       0.00305772 </v>
   <v>      -0.01268042       0.00168267      -0.02377913 </v>
   <v>      -0.01513006       0.01381411      -0.00143133 </v>
   <v>      -0.00372916      -0.01432963       0.00009718 </v>
   <v>      -0.00325213       0.04896261      -0.03640666 </v>
   <v>      -0.00424694      -0.01013119      -0.00162242 </v>
   <v>       0.01693517      -0.00318244       0.01971124 </v>
   <v>       0.04670518      -0.03117366      -0.02072168 </v>
   <v>      -0.00450387       0.01310012       0.00088472 </v>
   <v>       0.01975974      -0.04713240      -0.01558416 </v>
   <v>      -0.01403460       0.00425600      -0.05079754 </v>
   <v>       0.01690825      -0.00092151      -0.00856707 </v>
   <v>       0.00217199      -0.00555897       0.02838519 </v>
   <v>       0.00493810      -0.02089650       0.02281467 </v>
   <v>       0.00137879      -0.01460744       0.00071244 </v>
   <v>       0.02359710       0.01666893       0.02927009 </v>
   <v>       0.00241515       0.00849154       0.00933811 </v>
   <v>      -0.03377942       0.00408015      -0.04463764 </v>
   <v>      -0.01160410      -0.00638100       0.01773415 </v>
   <v>      -0.00529373       0.02424944       0.03905137 </v>
   <v>       0.00211613       0.00596398      -0.00400142 </v>
   <v>       0.00458714       0.01060394       0.00692883 </v>
   <v>       0.00406391       0.00258222       0.00891904 </v>
   <v>       0.00120450      -0.03523056       0.03497693 </v>
   <v>      -0.00265194      -0.01488467      -0.00777706 </v>
   <v>      -0.00441071       0.01266292      -0.01372080 </v>
   <v>      -0.00105132       0.00573306      -0.00267177 </v>
   <v>      -0.01694424      -0.00173856       0.08254461 </v>
   <v>       0.00093873      -0.01510274      -0.01090068 </v>
   <v>       0.02708444      -0.01758431       0.04440008 </v>
   <v>       0.00949644      -0.00555267      -0.00180556 </v>
   <v>      -0.00157113       0.00026365       0.00724881 </v>
   <v>       0.00727227       0.00854924       0.01449099 </v>
   <v>       0.00997401      -0.00261679       0.02491623 </v>
   <v>      -0.00718423       0.03158386      -0.02358830 </v>
   <v>      -0.06192945       0.03383479       0.06178304 </v>
   <v>       0.00435345      -0.00457722       0.00312623 </v>
   <v>      -0.00121689       0.00338348      -0.00706817 </v>
   <v>       0.00331399       0.00127763      -0.00707859 </v>
   <v>      -0.00258596       0.00743307      -0.01061427 </v>
   <v>      -0.00517252      -0.00726862      -0.00699646 </v>
   <v>       0.00413846      -0.00122638      -0.00917220 </v>
   <v>      -0.00195718      -0.00456328      -0.01267120 </v>
   <v>      -0.00960580       0.04423930      -0.03516214 </v>
   <v>      -0.01092000       0.02809519      -0.02375819 </v>
   <v>      -0.02677797       0.04173839       0.04536801 </v>
   <v>       0.00211300      -0.00842008      -0.00328923 </v>
   <v>       0.01321631      -0.00020335      -0.00469544 </v>
   <v>       0.01754430      -0.00774901      -0.01027558 </v>
  </varray>
  <varray name="stress" >
   <v>      -5.41170954       0.43855682      -0.11028011 </v>
   <v>       0.43855651      -5.26661055       0.39899709 </v>
   <v>      -0.11028026       0.39899707       0.42673902 </v>
  </varray>
  <energy>
   <i name="e_fr_energy">    -68.95624259 </i>
   <i name="e_wo_entrp">    -68.95624259 </i>
   <i name="e_0_energy">      0.00000000 </i>
  </energy>
  <time name="totalsc">  428.10  429.75</time>
  <eigenvalues>
   <array>
    <dimension dim="1">band</dimension>
    <dimension dim="2">kpoint</dimension>
    <dimension dim="3">spin</dimension>
    <field>eigene</field>
    <field>occ</field>
    <set>
     <set comment="spin 1">
      <set comment="kpoint 1">
       <r>  -23.8734    1.0000 </r>
       <r>  -23.6987    1.0000 </r>
       <r>  -23.3676    1.0000 </r>
       <r>  -23.2077    1.0000 </r>
       <r>  -22.9281    1.0000 </r>
       <r>  -20.8754    1.0000 </r>
       <r>  -11.9173    1.0000 </r>
       <r>  -11.7801    1.0000 </r>
       <r>  -11.2296    1.0000 </r>
       <r>  -11.0724    1.0000 </r>
       <r>  -10.8866    1.0000 </r>
       <r>   -8.8196    1.0000 </r>
       <r>   -8.6669    1.0000 </r>
       <r>   -8.3268    1.0000 </r>
       <r>   -8.0899    1.0000 </r>
       <r>   -7.8068    1.0000 </r>
       <r>   -7.5844    1.0000 </r>
       <r>   -7.5018    1.0000 </r>
       <r>   -7.0284    1.0000 </r>
       <r>   -6.5851    1.0000 </r>
       <r>   -6.3822    1.0000 </r>
       <r>   -6.2929    1.0000 </r>
       <r>   -6.2537    1.0000 </r>
       <r>   -5.8021    1.0000 </r>
       <r>   -5.7465    1.0000 </r>
       <r>   -5.7048    1.0000 </r>
       <r>   -5.3688    1.0000 </r>
       <r>   -5.3611    1.0000 </r>
       <r>   -5.3421    1.0000 </r>
       <r>   -5.3330    1.0000 </r>
       <r>   -5.3022    1.0000 </r>
       <r>   -5.2667    1.0000 </r>
       <r>   -5.1536    1.0000 </r>
       <r>   -4.8322    1.0000 </r>
       <r>   -4.8237    1.0000 </r>
       <r>   -4.7993    1.0000 </r>
       <r>   -4.7573    1.0000 </r>
       <r>   -4.7020    1.0000 </r>
       <r>   -4.6538    1.0000 </r>
       <r>   -4.5092    1.0000 </r>
       <r>   -4.3597    1.0000 </r>
       <r>   -3.9484    1.0000 </r>
       <r>   -3.9151    1.0000 </r>
       <r>   -3.8905    1.0000 </r>
       <r>   -3.7803    1.0000 </r>
       <r>   -3.7166    1.0000 </r>
       <r>   -3.4125    1.0000 </r>
       <r>   -3.1466    1.0000 </r>
       <r>   -2.7977    1.0000 </r>
       <r>   -2.7397    1.0000 </r>
       <r>   -2.7276    1.0000 </r>
       <r>   -2.6524    1.0000 </r>
       <r>   -2.5447    1.0000 </r>
       <r>   -1.9771    1.0000 </r>
       <r>   -1.7377    1.0000 </r>
       <r>   -1.3797    1.0000 </r>
       <r>   -1.2723    1.0000 </r>
       <r>   -1.2415    1.0000 </r>
       <r>   -1.2142    1.0000 </r>
       <r>   -1.1793    1.0000 </r>
       <r>   -1.1718    1.0000 </r>
       <r>   -1.1601    1.0000 </r>
       <r>   -1.1347    1.0000 </r>
       <r>   -1.1208    1.0000 </r>
       <r>   -1.1125    1.0000 </r>
       <r>   -1.0275    1.0000 </r>
       <r>   -0.8390    1.0000 </r>
       <r>   -0.8248    1.0000 </r>
       <r>   -0.7530    0.7171 </r>
       <r>   -0.6259    0.0000 </r>
       <r>   -0.6016    0.0000 </r>
       <r>   -0.4985    0.0000 </r>
       <r>   -0.3792    0.0000 </r>
       <r>   -0.1863    0.0000 </r>
       <r>   -0.1266    0.0000 </r>
       <r>    0.0376    0.0000 </r>
       <r>    0.0829    0.0000 </r>
       <r>    0.1572    0.0000 </r>
       <r>    0.1784    0.0000 </r>
       <r>    0.1888    0.0000 </r>
       <r>    0.2718    0.0000 </r>
       <r>    0.4024    0.0000 </r>
       <r>    0.5216    0.0000 </r>
       <r>    0.8227    0.0000 </r>
       <r>    0.9152    0.0000 </r>
       <r>    0.9331    0.0000 </r>
       <r>    0.9398    0.0000 </r>
       <r>    0.9602    0.0000 </r>
       <r>    0.9708    0.0000 </r>
       <r>    0.9820    0.0000 </r>
       <r>    1.0231    0.0000 </r>
       <r>    1.1012    0.0000 </r>
       <r>    1.1977    0.0000 </r>
       <r>    1.2283    0.0000 </r>
       <r>    1.2964    0.0000 </r>
       <r>    1.4738    0.0000 </r>
       <r>    1.4824    0.0000 </r>
       <r>    1.4927    0.0000 </r>
       <r>    1.5189    0.0000 </r>
       <r>    1.5325    0.0000 </r>
       <r>    1.5714    0.0000 </r>
       <r>    1.6983    0.0000 </r>
      </set>
      <set comment="kpoint 2">
       <r>  -23.8733    1.0000 </r>
       <r>  -23.6980    1.0000 </r>
       <r>  -23.3729    1.0000 </r>
       <r>  -23.2018    1.0000 </r>
       <r>  -22.9296    1.0000 </r>
       <r>  -20.8755    1.0000 </r>
       <r>  -11.9169    1.0000 </r>
       <r>  -11.7799    1.0000 </r>
       <r>  -11.2469    1.0000 </r>
       <r>  -11.0352    1.0000 </r>
       <r>  -10.9070    1.0000 </r>
       <r>   -8.8185    1.0000 </r>
       <r>   -8.6641    1.0000 </r>
       <r>   -8.3330    1.0000 </r>
       <r>   -8.0813    1.0000 </r>
       <r>   -7.8030    1.0000 </r>
       <r>   -7.5768    1.0000 </r>
       <r>   -7.2795    1.0000 </r>
       <r>   -6.8916    1.0000 </r>
       <r>   -6.5823    1.0000 </r>
       <r>   -6.4891    1.0000 </r>
       <r>   -6.3783    1.0000 </r>
       <r>   -6.3058    1.0000 </r>
       <r>   -6.1975    1.0000 </r>
       <r>   -5.9233    1.0000 </r>
       <r>   -5.8213    1.0000 </r>
       <r>   -5.7964    1.0000 </r>
       <r>   -5.7641    1.0000 </r>
       <r>   -5.7075    1.0000 </r>
       <r>   -5.5663    1.0000 </r>
       <r>   -5.2384    1.0000 </r>
       <r>   -5.2002    1.0000 </r>
       <r>   -5.0956    1.0000 </r>
       <r>   -4.8475    1.0000 </r>
       <r>   -4.5830    1.0000 </r>
       <r>   -4.4940    1.0000 </r>
       <r>   -4.3821    1.0000 </r>
       <r>   -4.3665    1.0000 </r>
       <r>   -4.2650    1.0000 </r>
       <r>   -4.0974    1.0000 </r>
       <r>   -3.8292    1.0000 </r>
       <r>   -3.7819    1.0000 </r>
       <r>   -3.6907    1.0000 </r>
       <r>   -3.5763    1.0000 </r>
       <r>   -3.1747    1.0000 </r>
       <r>   -3.1364    1.0000 </r>
       <r>   -3.0743    1.0000 </r>
       <r>   -3.0080    1.0000 </r>
       <r>   -2.9798    1.0000 </r>
       <r>   -2.9638    1.0000 </r>
       <r>   -2.8954    1.0000 </r>
       <r>   -2.5959    1.0000 </r>
       <r>   -2.4409    1.0000 </r>
       <r>   -2.3744    1.0000 </r>
       <r>   -2.2949    1.0000 </r>
       <r>   -2.0987    1.0000 </r>
       <r>   -1.8117    1.0000 </r>
       <r>   -1.7777    1.0000 </r>
       <r>   -1.6945    1.0000 </r>
       <r>   -1.6332    1.0000 </r>
       <r>   -1.6044    1.0000 </r>
       <r>   -1.5702    1.0000 </r>
       <r>   -1.5328    1.0000 </r>
       <r>   -1.3875    1.0000 </r>
       <r>   -1.0735    1.0000 </r>
       <r>   -0.9519    1.0000 </r>
       <r>   -0.9283    1.0000 </r>
       <r>   -0.8485    1.0000 </r>
       <r>   -0.7226    0.4271 </r>
       <r>   -0.7025    0.0984 </r>
       <r>   -0.6338   -0.0384 </r>
       <r>   -0.5464    0.0000 </r>
       <r>   -0.3329    0.0000 </r>
       <r>   -0.1657    0.0000 </r>
       <r>   -0.1311    0.0000 </r>
       <r>   -0.0518    0.0000 </r>
       <r>   -0.0437    0.0000 </r>
       <r>    0.1123    0.0000 </r>
       <r>    0.1622    0.0000 </r>
       <r>    0.2098    0.0000 </r>
       <r>    0.3251    0.0000 </r>
       <r>    0.4019    0.0000 </r>
       <r>    0.4407    0.0000 </r>
       <r>    0.5064    0.0000 </r>
       <r>    0.5592    0.0000 </r>
       <r>    0.6908    0.0000 </r>
       <r>    0.7987    0.0000 </r>
       <r>    0.8566    0.0000 </r>
       <r>    0.9464    0.0000 </r>
       <r>    1.0569    0.0000 </r>
       <r>    1.0768    0.0000 </r>
       <r>    1.1618    0.0000 </r>
       <r>    1.2109    0.0000 </r>
       <r>    1.2606    0.0000 </r>
       <r>    1.2852    0.0000 </r>
       <r>    1.3593    0.0000 </r>
       <r>    1.4369    0.0000 </r>
       <r>    1.5193    0.0000 </r>
       <r>    1.5861    0.0000 </r>
       <r>    1.6057    0.0000 </r>
       <r>    1.8420    0.0000 </r>
       <r>    1.9381    0.0000 </r>
      </set>
      <set comment="kpoint 3">
       <r>  -23.8733    1.0000 </r>
       <r>  -23.6988    1.0000 </r>
       <r>  -23.3677    1.0000 </r>
       <r>  -23.2083    1.0000 </r>
       <r>  -22.9276    1.0000 </r>
       <r>  -20.8755    1.0000 </r>
       <r>  -11.9166    1.0000 </r>
       <r>  -11.7801    1.0000 </r>
       <r>  -11.2279    1.0000 </r>
       <r>  -11.0754    1.0000 </r>
       <r>  -10.8854    1.0000 </r>
       <r>   -8.8181    1.0000 </r>
       <r>   -8.6703    1.0000 </r>
       <r>   -8.3193    1.0000 </r>
       <r>   -8.0940    1.0000 </r>
       <r>   -7.8083    1.0000 </r>
       <r>   -7.5624    1.0000 </r>
       <r>   -7.2797    1.0000 </r>
       <r>   -6.8950    1.0000 </r>
       <r>   -6.6094    1.0000 </r>
       <r>   -6.4989    1.0000 </r>
       <r>   -6.3556    1.0000 </r>
       <r>   -6.2835    1.0000 </r>
       <r>   -6.2122    1.0000 </r>
       <r>   -5.9055    1.0000 </r>
       <r>   -5.8274    1.0000 </r>
       <r>   -5.7956    1.0000 </r>
       <r>   -5.7685    1.0000 </r>
       <r>   -5.7033    1.0000 </r>
       <r>   -5.5525    1.0000 </r>
       <r>   -5.2778    1.0000 </r>
       <r>   -5.2188    1.0000 </r>
       <r>   -5.0435    1.0000 </r>
       <r>   -4.8747    1.0000 </r>
       <r>   -4.5940    1.0000 </r>
       <r>   -4.4429    1.0000 </r>
       <r>   -4.3997    1.0000 </r>
       <r>   -4.3668    1.0000 </r>
       <r>   -4.2261    1.0000 </r>
       <r>   -4.1336    1.0000 </r>
       <r>   -3.8532    1.0000 </r>
       <r>   -3.7693    1.0000 </r>
       <r>   -3.6837    1.0000 </r>
       <r>   -3.5657    1.0000 </r>
       <r>   -3.1868    1.0000 </r>
       <r>   -3.1284    1.0000 </r>
       <r>   -3.0784    1.0000 </r>
       <r>   -3.0281    1.0000 </r>
       <r>   -2.9929    1.0000 </r>
       <r>   -2.9632    1.0000 </r>
       <r>   -2.8568    1.0000 </r>
       <r>   -2.6365    1.0000 </r>
       <r>   -2.4433    1.0000 </r>
       <r>   -2.3596    1.0000 </r>
       <r>   -2.2974    1.0000 </r>
       <r>   -2.0819    1.0000 </r>
       <r>   -1.8365    1.0000 </r>
       <r>   -1.7623    1.0000 </r>
       <r>   -1.7244    1.0000 </r>
       <r>   -1.6391    1.0000 </r>
       <r>   -1.5998    1.0000 </r>
       <r>   -1.5698    1.0000 </r>
       <r>   -1.4743    1.0000 </r>
       <r>   -1.4000    1.0000 </r>
       <r>   -1.0485    1.0000 </r>
       <r>   -0.9553    1.0000 </r>
       <r>   -0.9236    1.0000 </r>
       <r>   -0.8542    1.0000 </r>
       <r>   -0.7238    0.4367 </r>
       <r>   -0.6979    0.0786 </r>
       <r>   -0.6759   -0.0248 </r>
       <r>   -0.5515    0.0000 </r>
       <r>   -0.3797    0.0000 </r>
       <r>   -0.1606    0.0000 </r>
       <r>   -0.0934    0.0000 </r>
       <r>   -0.0627    0.0000 </r>
       <r>   -0.0055    0.0000 </r>
       <r>    0.0996    0.0000 </r>
       <r>    0.1495    0.0000 </r>
       <r>    0.2428    0.0000 </r>
       <r>    0.3462    0.0000 </r>
       <r>    0.3976    0.0000 </r>
       <r>    0.4198    0.0000 </r>
       <r>    0.5168    0.0000 </r>
       <r>    0.5472    0.0000 </r>
       <r>    0.6613    0.0000 </r>
       <r>    0.8143    0.0000 </r>
       <r>    0.8666    0.0000 </r>
       <r>    0.9232    0.0000 </r>
       <r>    1.0172    0.0000 </r>
       <r>    1.0709    0.0000 </r>
       <r>    1.1931    0.0000 </r>
       <r>    1.2112    0.0000 </r>
       <r>    1.2704    0.0000 </r>
       <r>    1.3074    0.0000 </r>
       <r>    1.3556    0.0000 </r>
       <r>    1.4352    0.0000 </r>
       <r>    1.5407    0.0000 </r>
       <r>    1.5817    0.0000 </r>
       <r>    1.6559    0.0000 </r>
       <r>    1.8138    0.0000 </r>
       <r>    2.0807    0.0000 </r>
      </set>
      <set comment="kpoint 4">
       <r>  -23.8732    1.0000 </r>
       <r>  -23.6980    1.0000 </r>
       <r>  -23.3731    1.0000 </r>
       <r>  -23.2021    1.0000 </r>
       <r>  -22.9292    1.0000 </r>
       <r>  -20.8755    1.0000 </r>
       <r>  -11.9162    1.0000 </r>
       <r>  -11.7799    1.0000 </r>
       <r>  -11.2458    1.0000 </r>
       <r>  -11.0372    1.0000 </r>
       <r>  -10.9067    1.0000 </r>
       <r>   -8.8177    1.0000 </r>
       <r>   -8.6708    1.0000 </r>
       <r>   -8.3200    1.0000 </r>
       <r>   -8.0902    1.0000 </r>
       <r>   -7.8036    1.0000 </r>
       <r>   -7.5641    1.0000 </r>
       <r>   -6.9656    1.0000 </r>
       <r>   -6.7913    1.0000 </r>
       <r>   -6.7687    1.0000 </r>
       <r>   -6.6454    1.0000 </r>
       <r>   -6.4232    1.0000 </r>
       <r>   -6.3640    1.0000 </r>
       <r>   -6.2808    1.0000 </r>
       <r>   -6.1756    1.0000 </r>
       <r>   -6.1001    1.0000 </r>
       <r>   -5.8646    1.0000 </r>
       <r>   -5.7755    1.0000 </r>
       <r>   -5.7024    1.0000 </r>
       <r>   -5.3838    1.0000 </r>
       <r>   -5.2858    1.0000 </r>
       <r>   -5.0375    1.0000 </r>
       <r>   -4.9029    1.0000 </r>
       <r>   -4.6293    1.0000 </r>
       <r>   -4.6142    1.0000 </r>
       <r>   -4.5792    1.0000 </r>
       <r>   -4.4918    1.0000 </r>
       <r>   -4.1247    1.0000 </r>
       <r>   -4.1081    1.0000 </r>
       <r>   -4.0623    1.0000 </r>
       <r>   -4.0326    1.0000 </r>
       <r>   -3.9606    1.0000 </r>
       <r>   -3.5699    1.0000 </r>
       <r>   -3.1839    1.0000 </r>
       <r>   -3.1497    1.0000 </r>
       <r>   -2.9387    1.0000 </r>
       <r>   -2.6012    1.0000 </r>
       <r>   -2.5898    1.0000 </r>
       <r>   -2.5467    1.0000 </r>
       <r>   -2.5384    1.0000 </r>
       <r>   -2.5300    1.0000 </r>
       <r>   -2.5082    1.0000 </r>
       <r>   -2.5035    1.0000 </r>
       <r>   -2.4866    1.0000 </r>
       <r>   -2.3072    1.0000 </r>
       <r>   -2.0851    1.0000 </r>
       <r>   -2.0671    1.0000 </r>
       <r>   -2.0449    1.0000 </r>
       <r>   -2.0178    1.0000 </r>
       <r>   -1.9972    1.0000 </r>
       <r>   -1.9618    1.0000 </r>
       <r>   -1.9216    1.0000 </r>
       <r>   -1.8648    1.0000 </r>
       <r>   -1.6049    1.0000 </r>
       <r>   -1.4101    1.0000 </r>
       <r>   -1.3665    1.0000 </r>
       <r>   -1.1944    1.0000 </r>
       <r>   -1.1553    1.0000 </r>
       <r>   -1.0676    1.4297 </r>
       <r>   -0.8161    1.0430 </r>
       <r>   -0.7657    0.2663 </r>
       <r>   -0.7294    0.0000 </r>
       <r>   -0.6767    0.0000 </r>
[...]
       <r>   -21.9763     0.0000    10.0000 </r>
       <r>   -21.8764     0.0000    10.0000 </r>
       <r>   -21.7765     0.0000    10.0000 </r>
       <r>   -21.6766     0.0000    10.0000 </r>
       <r>   -21.5766     0.0000    10.0000 </r>
       <r>   -21.4767     0.0000    10.0000 </r>
       <r>   -21.3768     0.0000    10.0000 </r>
       <r>   -21.2769     0.0000    10.0000 </r>
       <r>   -21.1769     0.0000    10.0000 </r>
       <r>   -21.0770     0.0000    10.0000 </r>
       <r>   -20.9771     0.0000    10.0000 </r>
       <r>   -20.8772     0.0000    10.0000 </r>
       <r>   -20.7773     0.0000    12.0000 </r>
       <r>   -20.6773     0.0000    12.0000 </r>
       <r>   -20.5774     0.0000    12.0000 </r>
       <r>   -20.4775     0.0000    12.0000 </r>
       <r>   -20.3776     0.0000    12.0000 </r>
       <r>   -20.2776     0.0000    12.0000 </r>
       <r>   -20.1777     0.0000    12.0000 </r>
       <r>   -20.0778     0.0000    12.0000 </r>
       <r>   -19.9779     0.0000    12.0000 </r>
       <r>   -19.8779     0.0000    12.0000 </r>
       <r>   -19.7780     0.0000    12.0000 </r>
       <r>   -19.6781     0.0000    12.0000 </r>
       <r>   -19.5782     0.0000    12.0000 </r>
       <r>   -19.4782     0.0000    12.0000 </r>
       <r>   -19.3783     0.0000    12.0000 </r>
       <r>   -19.2784     0.0000    12.0000 </r>
       <r>   -19.1785     0.0000    12.0000 </r>
       <r>   -19.0785     0.0000    12.0000 </r>
       <r>   -18.9786     0.0000    12.0000 </r>
       <r>   -18.8787     0.0000    12.0000 </r>
       <r>   -18.7788     0.0000    12.0000 </r>
       <r>   -18.6788     0.0000    12.0000 </r>
       <r>   -18.5789     0.0000    12.0000 </r>
       <r>   -18.4790     0.0000    12.0000 </r>
       <r>   -18.3791     0.0000    12.0000 </r>
       <r>   -18.2791     0.0000    12.0000 </r>
       <r>   -18.1792     0.0000    12.0000 </r>
       <r>   -18.0793     0.0000    12.0000 </r>
       <r>   -17.9794     0.0000    12.0000 </r>
       <r>   -17.8794     0.0000    12.0000 </r>
       <r>   -17.7795     0.0000    12.0000 </r>
       <r>   -17.6796     0.0000    12.0000 </r>
       <r>   -17.5797     0.0000    12.0000 </r>
       <r>   -17.4798     0.0000    12.0000 </r>
       <r>   -17.3798     0.0000    12.0000 </r>
       <r>   -17.2799     0.0000    12.0000 </r>
       <r>   -17.1800     0.0000    12.0000 </r>
       <r>   -17.0801     0.0000    12.0000 </r>
       <r>   -16.9801     0.0000    12.0000 </r>
       <r>   -16.8802     0.0000    12.0000 </r>
       <r>   -16.7803     0.0000    12.0000 </r>
       <r>   -16.6804     0.0000    12.0000 </r>
       <r>   -16.5804     0.0000    12.0000 </r>
       <r>   -16.4805     0.0000    12.0000 </r>
       <r>   -16.3806     0.0000    12.0000 </r>
       <r>   -16.2807     0.0000    12.0000 </r>
       <r>   -16.1807     0.0000    12.0000 </r>
       <r>   -16.0808     0.0000    12.0000 </r>
       <r>   -15.9809     0.0000    12.0000 </r>
       <r>   -15.8810     0.0000    12.0000 </r>
       <r>   -15.7810     0.0000    12.0000 </r>
       <r>   -15.6811     0.0000    12.0000 </r>
       <r>   -15.5812     0.0000    12.0000 </r>
       <r>   -15.4813     0.0000    12.0000 </r>
       <r>   -15.3813     0.0000    12.0000 </r>
       <r>   -15.2814     0.0000    12.0000 </r>
       <r>   -15.1815     0.0000    12.0000 </r>
       <r>   -15.0816     0.0000    12.0000 </r>
       <r>   -14.9816     0.0000    12.0000 </r>
       <r>   -14.8817     0.0000    12.0000 </r>
       <r>   -14.7818     0.0000    12.0000 </r>
       <r>   -14.6819     0.0000    12.0000 </r>
       <r>   -14.5819     0.0000    12.0000 </r>
       <r>   -14.4820     0.0000    12.0000 </r>
       <r>   -14.3821     0.0000    12.0000 </r>
       <r>   -14.2822     0.0000    12.0000 </r>
       <r>   -14.1823     0.0000    12.0000 </r>
       <r>   -14.0823     0.0000    12.0000 </r>
       <r>   -13.9824     0.0000    12.0000 </r>
       <r>   -13.8825     0.0000    12.0000 </r>
       <r>   -13.7826     0.0000    12.0000 </r>
       <r>   -13.6826     0.0000    12.0000 </r>
       <r>   -13.5827     0.0000    12.0000 </r>
       <r>   -13.4828     0.0000    12.0000 </r>
       <r>   -13.3829     0.0000    12.0000 </r>
       <r>   -13.2829     0.0000    12.0000 </r>
       <r>   -13.1830     0.0000    12.0000 </r>
       <r>   -13.0831     0.0000    12.0000 </r>
       <r>   -12.9832     0.0000    12.0000 </r>
       <r>   -12.8832     0.0000    12.0000 </r>
       <r>   -12.7833     0.0000    12.0000 </r>
       <r>   -12.6834     0.0000    12.0000 </r>
       <r>   -12.5835     0.0000    12.0000 </r>
       <r>   -12.4835     0.0000    12.0000 </r>
       <r>   -12.3836     0.0000    12.0000 </r>
       <r>   -12.2837     0.0000    12.0000 </r>
       <r>   -12.1838     0.0000    12.0000 </r>
       <r>   -12.0838     0.0000    12.0000 </r>
       <r>   -11.9839     0.0000    12.0000 </r>
       <r>   -11.8840     0.0000    14.0000 </r>
       <r>   -11.7841     0.0000    14.0000 </r>
       <r>   -11.6841     0.0000    16.0000 </r>
       <r>   -11.5842     0.0000    16.0000 </r>
       <r>   -11.4843     0.0000    16.0000 </r>
       <r>   -11.3844     0.0000    16.0000 </r>
       <r>   -11.2844     0.0000    16.0000 </r>
       <r>   -11.1845     0.0000    18.0000 </r>
       <r>   -11.0846     0.0000    18.0000 </r>
       <r>   -10.9847     0.0000    20.0000 </r>
       <r>   -10.8848     0.0000    22.0000 </r>
       <r>   -10.7848     0.0000    22.0000 </r>
       <r>   -10.6849     0.0000    22.0000 </r>
       <r>   -10.5850     0.0000    22.0000 </r>
       <r>   -10.4851     0.0000    22.0000 </r>
       <r>   -10.3851     0.0000    22.0000 </r>
       <r>   -10.2852     0.0000    22.0000 </r>
       <r>   -10.1853     0.0000    22.0000 </r>
       <r>   -10.0854     0.0000    22.0000 </r>
       <r>    -9.9854     0.0000    22.0000 </r>
       <r>    -9.8855     0.0000    22.0000 </r>
       <r>    -9.7856     0.0000    22.0000 </r>
       <r>    -9.6857     0.0000    22.0000 </r>
       <r>    -9.5857     0.0000    22.0000 </r>
       <r>    -9.4858     0.0000    22.0000 </r>
       <r>    -9.3859     0.0000    22.0000 </r>
       <r>    -9.2860     0.0000    22.0000 </r>
       <r>    -9.1860     0.0000    22.0000 </r>
       <r>    -9.0861     0.0000    22.0000 </r>
       <r>    -8.9862     0.0000    22.0000 </r>
       <r>    -8.8863     0.0000    22.0000 </r>
       <r>    -8.7863     0.0000    24.0000 </r>
       <r>    -8.6864     0.0000    24.0000 </r>
       <r>    -8.5865     0.0000    26.0000 </r>
       <r>    -8.4866     0.0000    26.0000 </r>
       <r>    -8.3866     0.0000    26.0000 </r>
       <r>    -8.2867     0.0000    28.0000 </r>
       <r>    -8.1868     0.0000    28.0000 </r>
       <r>    -8.0869   100.1812    29.5800 </r>
       <r>    -7.9869     0.0000    30.0000 </r>
       <r>    -7.8870     0.0000    30.0000 </r>
       <r>    -7.7871     0.0000    32.0000 </r>
       <r>    -7.6872     0.0000    32.0000 </r>
       <r>    -7.5873     0.0000    32.0000 </r>
       <r>    -7.4873     0.3934    34.0028 </r>
       <r>    -7.3874     3.1095    34.1779 </r>
       <r>    -7.2875     5.8257    34.6243 </r>
       <r>    -7.1876     5.9762    35.3369 </r>
       <r>    -7.0876     3.2853    35.7996 </r>
       <r>    -6.9877     3.6770    36.0562 </r>
       <r>    -6.8878    23.7094    36.8568 </r>
       <r>    -6.7879     0.0000    38.0000 </r>
       <r>    -6.6879     7.4887    38.3022 </r>
       <r>    -6.5880    45.2530    40.0102 </r>
       <r>    -6.4881    13.4238    41.3661 </r>
       <r>    -6.3882    28.1371    42.4789 </r>
       <r>    -6.2882    28.9829    45.4643 </r>
       <r>    -6.1883     3.1140    47.3986 </r>
       <r>    -6.0884     5.9535    47.8127 </r>
       <r>    -5.9885    12.3868    48.7291 </r>
       <r>    -5.8885    15.6737    50.2317 </r>
       <r>    -5.7886    12.9052    52.9951 </r>
       <r>    -5.6887     8.4622    56.5896 </r>
       <r>    -5.5888     5.9224    57.3083 </r>
       <r>    -5.4888    17.9181    58.8982 </r>
       <r>    -5.3889     2.9140    59.9390 </r>
       <r>    -5.2890    20.2670    60.8812 </r>
       <r>    -5.1891    13.8547    62.8275 </r>
       <r>    -5.0891    17.1677    64.2189 </r>
       <r>    -4.9892    10.2456    65.5580 </r>
       <r>    -4.8893     0.0000    66.0000 </r>
       <r>    -4.7894     8.4004    67.4136 </r>
       <r>    -4.6894     8.0012    68.2158 </r>
       <r>    -4.5895    49.9193    69.9535 </r>
       <r>    -4.4896    24.0917    72.1807 </r>
       <r>    -4.3897    23.7314    74.8670 </r>
       <r>    -4.2898    15.5055    76.2328 </r>
       <r>    -4.1898    16.0922    78.0012 </r>
       <r>    -4.0899    34.3736    79.4417 </r>
       <r>    -3.9900     5.0376    80.4098 </r>
       <r>    -3.8901    21.4443    81.5792 </r>
       <r>    -3.7901    24.0420    83.8907 </r>
       <r>    -3.6902    12.5277    84.9128 </r>
       <r>    -3.5903     9.3222    86.6449 </r>
       <r>    -3.4904     7.3991    87.4206 </r>
       <r>    -3.3904     6.6417    88.1120 </r>
       <r>    -3.2905     6.7989    88.7835 </r>
       <r>    -3.1906     6.9561    89.4708 </r>
       <r>    -3.0907    18.5972    91.9238 </r>
       <r>    -2.9907    16.9941    93.8151 </r>
       <r>    -2.8908    32.9997    96.7812 </r>
       <r>    -2.7909    22.2494    99.7715 </r>
       <r>    -2.6910    10.1023   101.2959 </r>
       <r>    -2.5910    22.5218   102.9070 </r>
       <r>    -2.4911    17.2734   104.2570 </r>
       <r>    -2.3912    19.7368   106.9414 </r>
       <r>    -2.2913    27.0023   108.5106 </r>
       <r>    -2.1913     3.8403   109.3482 </r>
       <r>    -2.0914   112.5043   110.1186 </r>
       <r>    -1.9915     8.8815   111.5487 </r>
       <r>    -1.8916    22.9286   113.0860 </r>
       <r>    -1.7916    31.2219   115.9965 </r>
       <r>    -1.6917    30.4671   119.0396 </r>
       <r>    -1.5918    23.8122   121.9237 </r>
       <r>    -1.4919    21.0982   124.1512 </r>
       <r>    -1.3919    18.3486   126.1919 </r>
       <r>    -1.2920    11.9464   127.6002 </r>
       <r>    -1.1921     9.9308   128.6747 </r>
       <r>    -1.0922    26.4086   130.0235 </r>
       <r>    -0.9923    28.0129   132.4438 </r>
       <r>    -0.8923    20.2437   135.0834 </r>
       <r>    -0.7924    10.6033   136.9012 </r>
       <r>    -0.6925    36.7246   139.9789 </r>
       <r>    -0.5926    14.0199   142.9039 </r>
       <r>    -0.4926     6.0420   144.4785 </r>
       <r>    -0.3927    12.2515   145.3873 </r>
       <r>    -0.2928     9.0071   147.0916 </r>
       <r>    -0.1929    19.7342   148.3153 </r>
       <r>    -0.0929    20.6863   150.3371 </r>
       <r>     0.0070    40.2805   153.2747 </r>
       <r>     0.1069    38.9110   155.1743 </r>
       <r>     0.2068    50.2670   159.1087 </r>
       <r>     0.3068    29.8285   160.8543 </r>
       <r>     0.4067    52.5470   162.6300 </r>
       <r>     0.5066    23.8123   165.2388 </r>
       <r>     0.6065    24.1429   167.8284 </r>
       <r>     0.7065    25.7151   169.8966 </r>
       <r>     0.8064    20.6492   171.6063 </r>
       <r>     0.9063    22.4419   174.5746 </r>
       <r>     1.0062    21.8776   176.6381 </r>
       <r>     1.1062    20.3695   179.1475 </r>
       <r>     1.2061    68.1395   181.7877 </r>
       <r>     1.3060    41.2888   186.0609 </r>
       <r>     1.4059    33.4887   189.6123 </r>
       <r>     1.5059    49.6733   193.3995 </r>
       <r>     1.6058    42.8127   197.6167 </r>
       <r>     1.7057     8.2002   200.1419 </r>
       <r>     1.8056     6.1308   200.6253 </r>
       <r>     1.9056    11.8179   201.9475 </r>
       <r>     2.0055     6.6981   202.8173 </r>
       <r>     2.1054     0.0000   204.0000 </r>
       <r>     2.2053     0.0000   204.0000 </r>
       <r>     2.3052     0.0000   204.0000 </r>
       <r>     2.4052     0.0000   204.0000 </r>
       <r>     2.5051     0.0000   204.0000 </r>
       <r>     2.6050     0.0000   204.0000 </r>
       <r>     2.7049     0.0000   204.0000 </r>
       <r>     2.8049     0.0000   204.0000 </r>
       <r>     2.9048     0.0000   204.0000 </r>
       <r>     3.0047     0.0000   204.0000 </r>
       <r>     3.1046     0.0000   204.0000 </r>
       <r>     3.2046     0.0000   204.0000 </r>
       <r>     3.3045     0.0000   204.0000 </r>
       <r>     3.4044     0.0000   204.0000 </r>
       <r>     3.5043     0.0000   204.0000 </r>
       <r>     3.6043     0.0000   204.0000 </r>
       <r>     3.7042     0.0000   204.0000 </r>
       <r>     3.8041     0.0000   204.0000 </r>
       <r>     3.9040     0.0000   204.0000 </r>
       <r>     4.0040     0.0000   204.0000 </r>
       <r>     4.1039     0.0000   204.0000 </r>
      </set>
     </set>
    </array>
   </total>
  </dos>
 </calculation>
 <structure name="finalpos" >
  <crystal>
   <varray name="basis" >
    <v>       9.55575275       0.00000000       0.00000000 </v>
    <v>      -4.77787638       8.27552464       0.00000000 </v>
    <v>       0.00000000       0.00000000      32.62509537 </v>
   </varray>
   <i name="volume">   2579.95558872 </i>
   <varray name="rec_basis" >
    <v>       0.10464900       0.06041913       0.00000000 </v>
    <v>       0.00000000       0.12083826       0.00000000 </v>
    <v>       0.00000000       0.00000000       0.03065125 </v>
   </varray>
  </crystal>
  <varray name="positions" >
   <v>       0.00000000       0.00000000       0.00000000 </v>
   <v>       0.99884765       0.99973328       0.15825798 </v>
   <v>       0.00329711       0.00471036       0.33056660 </v>
   <v>       0.00000001       0.33333336       0.00000000 </v>
   <v>       0.00016432       0.33397435       0.15754704 </v>
   <v>       0.99186854       0.33594467       0.31211225 </v>
   <v>       0.00000002       0.66666672       0.00000000 </v>
   <v>       0.99879991       0.66675160       0.15792855 </v>
   <v>       0.00779726       0.67493107       0.31372178 </v>
   <v>       0.33333334       0.00000000       0.00000000 </v>
   <v>       0.33304721       0.99969313       0.15722396 </v>
   <v>       0.32884725       0.00296750       0.30856875 </v>
   <v>       0.33333335       0.33333336       0.00000000 </v>
   <v>       0.33163938       0.33171625       0.15697304 </v>
   <v>       0.32105632       0.32692761       0.31168298 </v>
   <v>       0.33333336       0.66666672       0.00000000 </v>
   <v>       0.33226517       0.66764310       0.15791338 </v>
   <v>       0.32402994       0.67672462       0.32970821 </v>
   <v>       0.66666668       0.00000000       0.00000000 </v>
   <v>       0.66621746       0.99877891       0.15777888 </v>
   <v>       0.67133581       0.00434057       0.31334853 </v>
   <v>       0.66666668       0.33333336       0.00000000 </v>
   <v>       0.66680845       0.33522407       0.15884321 </v>
   <v>       0.66023370       0.31671279       0.32815417 </v>
   <v>       0.66666670       0.66666672       0.00000000 </v>
   <v>       0.66908390       0.66728197       0.15850436 </v>
   <v>       0.66391856       0.66710983       0.32464941 </v>
   <v>       0.11111113       0.22222222       0.07982145 </v>
   <v>       0.10607424       0.21929074       0.23623316 </v>
   <v>       0.11111114       0.55555561       0.07982145 </v>
   <v>       0.11572101       0.55818172       0.23648485 </v>
   <v>       0.11111116       0.88888894       0.07982145 </v>
   <v>       0.10788018       0.88919755       0.23467749 </v>
   <v>       0.44444450       0.22222222       0.07982145 </v>
   <v>       0.44638883       0.22728955       0.23566818 </v>
   <v>       0.44444450       0.55555561       0.07982145 </v>
   <v>       0.44535074       0.55631083       0.23411473 </v>
   <v>       0.44444451       0.88888894       0.07982145 </v>
   <v>       0.44375346       0.88400769       0.23653025 </v>
   <v>       0.77777779       0.22222222       0.07982145 </v>
   <v>       0.77416444       0.22096285       0.23522648 </v>
   <v>       0.77777781       0.55555561       0.07982145 </v>
   <v>       0.77231878       0.55084897       0.24127838 </v>
   <v>       0.77777784       0.88888894       0.07982145 </v>
   <v>       0.77843798       0.88384679       0.23986060 </v>
   <v>       0.00286479       0.00004012       0.39611457 </v>
   <v>       0.30350586       0.97248441       0.41227547 </v>
   <v>       0.88910104       0.21530283       0.41599879 </v>
   <v>       0.61411218       0.30597257       0.39206451 </v>
   <v>       0.67325361       0.59145987       0.38073291 </v>
   <v>       0.36287689       0.70723733       0.39402942 </v>
   <v>       0.97028970       0.07227159       0.40977723 </v>
   <v>       0.09701914       0.00775729       0.41047922 </v>
   <v>       0.39878250       0.08103981       0.40861189 </v>
   <v>       0.26092642       0.94060967       0.38391813 </v>
   <v>       0.98420618       0.32358018       0.41771141 </v>
   <v>       0.86076105       0.20387037       0.38623918 </v>
   <v>       0.63650440       0.42744894       0.39308890 </v>
   <v>       0.69317060       0.29756437       0.40948945 </v>
   <v>       0.77523236       0.66567190       0.39413712 </v>
   <v>       0.42787823       0.54917875       0.32871272 </v>
   <v>       0.36099998       0.80074971       0.40659890 </v>
   <v>       0.45675414       0.70317367       0.40457095 </v>
  </varray>
  <varray name="selective"  type="logical" >
   <v type="logical" >  F  F  F </v>
   <v type="logical" >  T  T  T </v>
   <v type="logical" >  T  T  T </v>
   <v type="logical" >  F  F  F </v>
   <v type="logical" >  T  T  T </v>
   <v type="logical" >  T  T  T </v>
   <v type="logical" >  F  F  F </v>
   <v type="logical" >  T  T  T </v>
   <v type="logical" >  T  T  T </v>
   <v type="logical" >  F  F  F </v>
   <v type="logical" >  T  T  T </v>
   <v type="logical" >  T  T  T </v>
   <v type="logical" >  F  F  F </v>
   <v type="logical" >  T  T  T </v>
   <v type="logical" >  T  T  T </v>
   <v type="logical" >  F  F  F </v>
   <v type="logical" >  T  T  T </v>
   <v type="logical" >  T  T  T </v>
   <v type="logical" >  F  F  F </v>
   <v type="logical" >  T  T  T </v>
   <v type="logical" >  T  T  T </v>
   <v type="logical" >  F  F  F </v>
   <v type="logical" >  T  T  T </v>
   <v type="logical" >  T  T  T </v>
   <v type="logical" >  F  F  F </v>
   <v type="logical" >  T  T  T </v>
   <v type="logical" >  T  T  T </v>
   <v type="logical" >  F  F  F </v>
   <v type="logical" >  T  T  T </v>
   <v type="logical" >  F  F  F </v>
   <v type="logical" >  T  T  T </v>
   <v type="logical" >  F  F  F </v>
   <v type="logical" >  T  T  T </v>
   <v type="logical" >  F  F  F </v>
   <v type="logical" >  T  T  T </v>
   <v type="logical" >  F  F  F </v>
   <v type="logical" >  T  T  T </v>
   <v type="logical" >  F  F  F </v>
   <v type="logical" >  T  T  T </v>
   <v type="logical" >  F  F  F </v>
   <v type="logical" >  T  T  T </v>
   <v type="logical" >  F  F  F </v>
   <v type="logical" >  T  T  T </v>
   <v type="logical" >  F  F  F </v>
   <v type="logical" >  T  T  T </v>
   <v type="logical" >  T  T  T </v>
   <v type="logical" >  T  T  T </v>
   <v type="logical" >  T  T  T </v>
   <v type="logical" >  T  T  T </v>
   <v type="logical" >  T  T  T </v>
   <v type="logical" >  T  T  T </v>
   <v type="logical" >  T  T  T </v>
   <v type="logical" >  T  T  T </v>
   <v type="logical" >  T  T  T </v>
   <v type="logical" >  T  T  T </v>
   <v type="logical" >  T  T  T </v>
   <v type="logical" >  T  T  T </v>
   <v type="logical" >  T  T  T </v>
   <v type="logical" >  T  T  T </v>
   <v type="logical" >  T  T  T </v>
   <v type="logical" >  T  T  T </v>
   <v type="logical" >  T  T  T </v>
   <v type="logical" >  T  T  T </v>
  </varray>
  <nose>
   <v>      -3.00000000       0.00000000       0.00010000       0.00010000 </v>
  </nose>
 </structure>
</modeling>
