Mg_slab_in_a_box                        
           1
     9.555753    0.000000    0.000000
    -4.777876    8.275525    0.000000
     0.000000    0.000000   32.625095
   Mg   O    H 
  45   6  12
Direct configuration=     1
   0.00000000  0.00000000  0.00000000
   0.99884765  0.99973328  0.15825798
   0.00329711  0.00471036  0.33056660
   0.00000001  0.33333336  0.00000000
   0.00016432  0.33397435  0.15754704
   0.99186854  0.33594467  0.31211225
   0.00000002  0.66666672  0.00000000
   0.99879991  0.66675160  0.15792855
   0.00779726  0.67493107  0.31372178
   0.33333334  0.00000000  0.00000000
   0.33304721  0.99969313  0.15722396
   0.32884725  0.00296750  0.30856875
   0.33333335  0.33333336  0.00000000
   0.33163938  0.33171625  0.15697304
   0.32105632  0.32692761  0.31168298
   0.33333336  0.66666672  0.00000000
   0.33226517  0.66764310  0.15791338
   0.32402994  0.67672462  0.32970821
   0.66666668  0.00000000  0.00000000
   0.66621746  0.99877891  0.15777888
   0.67133581  0.00434057  0.31334853
   0.66666668  0.33333336  0.00000000
   0.66680845  0.33522407  0.15884321
   0.66023370  0.31671279  0.32815417
   0.66666670  0.66666672  0.00000000
   0.66908390  0.66728197  0.15850436
   0.66391856  0.66710983  0.32464941
   0.11111113  0.22222222  0.07982145
   0.10607424  0.21929074  0.23623316
   0.11111114  0.55555561  0.07982145
   0.11572101  0.55818172  0.23648485
   0.11111116  0.88888894  0.07982145
   0.10788018  0.88919755  0.23467749
   0.44444450  0.22222222  0.07982145
   0.44638883  0.22728955  0.23566818
   0.44444450  0.55555561  0.07982145
   0.44535074  0.55631083  0.23411473
   0.44444451  0.88888894  0.07982145
   0.44375346  0.88400769  0.23653025
   0.77777779  0.22222222  0.07982145
   0.77416444  0.22096285  0.23522648
   0.77777781  0.55555561  0.07982145
   0.77231878  0.55084897  0.24127838
   0.77777784  0.88888894  0.07982145
   0.77843798  0.88384679  0.23986060
   0.00286479  0.00004012  0.39611457
   0.30350586  0.97248441  0.41227547
   0.88910104  0.21530283  0.41599879
   0.61411218  0.30597257  0.39206451
   0.67325361  0.59145987  0.38073291
   0.36287689  0.70723733  0.39402942
   0.97028970  0.07227159  0.40977723
   0.09701914  0.00775729  0.41047922
   0.39878250  0.08103981  0.40861189
   0.26092642  0.94060967  0.38391813
   0.98420618  0.32358018  0.41771141
   0.86076105  0.20387037  0.38623918
   0.63650440  0.42744894  0.39308890
   0.69317060  0.29756437  0.40948945
   0.77523236  0.66567190  0.39413712
   0.42787823  0.54917875  0.32871272
   0.36099998  0.80074971  0.40659890
   0.45675414  0.70317367  0.40457095
