  63  63   0   0
  0.4095168E+02  0.9555753E-09  0.9555753E-09  0.3262510E-08  0.5000000E-15
  1.000000000000000E-004
  CAR 
 Mg_slab_in_a_box                        
      4.33444544    -26.12471863  301     -0.48775814      1.00000000
    -26.125  0.0000E+00  0.0000E+00
    -26.023  0.0000E+00  0.0000E+00
    -25.922  0.0000E+00  0.0000E+00
    -25.820  0.0000E+00  0.0000E+00
    -25.719  0.0000E+00  0.0000E+00
    -25.617  0.0000E+00  0.0000E+00
    -25.516  0.0000E+00  0.0000E+00
    -25.414  0.0000E+00  0.0000E+00
    -25.312  0.0000E+00  0.0000E+00
    -25.211  0.0000E+00  0.0000E+00
    -25.109  0.0000E+00  0.0000E+00
    -25.008  0.0000E+00  0.0000E+00
    -24.906  0.0000E+00  0.0000E+00
    -24.805  0.0000E+00  0.0000E+00
    -24.703  0.0000E+00  0.0000E+00
    -24.602  0.0000E+00  0.0000E+00
    -24.500  0.0000E+00  0.0000E+00
    -24.399  0.0000E+00  0.0000E+00
    -24.297  0.0000E+00  0.0000E+00
    -24.196  0.0000E+00  0.0000E+00
    -24.094  0.0000E+00  0.2000E+01
    -23.993  0.0000E+00  0.2000E+01
    -23.891  0.0000E+00  0.2000E+01
    -23.790  0.0000E+00  0.4000E+01
    -23.688  0.0000E+00  0.6000E+01
    -23.586  0.0000E+00  0.6000E+01
    -23.485  0.0000E+00  0.8000E+01
    -23.383  0.0000E+00  0.8000E+01
    -23.282  0.0000E+00  0.1000E+02
    -23.180  0.0000E+00  0.1000E+02
    -23.079  0.0000E+00  0.1000E+02
    -22.977  0.0000E+00  0.1000E+02
    -22.876  0.0000E+00  0.1000E+02
    -22.774  0.0000E+00  0.1000E+02
    -22.673  0.0000E+00  0.1000E+02
    -22.571  0.0000E+00  0.1000E+02
    -22.470  0.0000E+00  0.1000E+02
    -22.368  0.0000E+00  0.1000E+02
    -22.267  0.0000E+00  0.1000E+02
    -22.165  0.0000E+00  0.1000E+02
    -22.063  0.0000E+00  0.1200E+02
    -21.962  0.0000E+00  0.1200E+02
    -21.860  0.0000E+00  0.1200E+02
    -21.759  0.0000E+00  0.1200E+02
    -21.657  0.0000E+00  0.1200E+02
    -21.556  0.0000E+00  0.1200E+02
    -21.454  0.0000E+00  0.1200E+02
    -21.353  0.0000E+00  0.1200E+02
    -21.251  0.0000E+00  0.1200E+02
    -21.150  0.0000E+00  0.1200E+02
    -21.048  0.0000E+00  0.1200E+02
    -20.947  0.0000E+00  0.1200E+02
    -20.845  0.0000E+00  0.1200E+02
    -20.744  0.0000E+00  0.1200E+02
    -20.642  0.0000E+00  0.1200E+02
    -20.541  0.0000E+00  0.1200E+02
    -20.439  0.0000E+00  0.1200E+02
    -20.337  0.0000E+00  0.1200E+02
    -20.236  0.0000E+00  0.1200E+02
    -20.134  0.0000E+00  0.1200E+02
    -20.033  0.0000E+00  0.1200E+02
    -19.931  0.0000E+00  0.1200E+02
    -19.830  0.0000E+00  0.1200E+02
    -19.728  0.0000E+00  0.1200E+02
    -19.627  0.0000E+00  0.1200E+02
    -19.525  0.0000E+00  0.1200E+02
    -19.424  0.0000E+00  0.1200E+02
    -19.322  0.0000E+00  0.1200E+02
    -19.221  0.0000E+00  0.1200E+02
    -19.119  0.0000E+00  0.1200E+02
    -19.018  0.0000E+00  0.1200E+02
    -18.916  0.0000E+00  0.1200E+02
    -18.815  0.0000E+00  0.1200E+02
    -18.713  0.0000E+00  0.1200E+02
    -18.611  0.0000E+00  0.1200E+02
    -18.510  0.0000E+00  0.1200E+02
    -18.408  0.0000E+00  0.1200E+02
    -18.307  0.0000E+00  0.1200E+02
    -18.205  0.0000E+00  0.1200E+02
    -18.104  0.0000E+00  0.1200E+02
    -18.002  0.0000E+00  0.1200E+02
    -17.901  0.0000E+00  0.1200E+02
    -17.799  0.0000E+00  0.1200E+02
    -17.698  0.0000E+00  0.1200E+02
    -17.596  0.0000E+00  0.1200E+02
    -17.495  0.0000E+00  0.1200E+02
    -17.393  0.0000E+00  0.1200E+02
    -17.292  0.0000E+00  0.1200E+02
    -17.190  0.0000E+00  0.1200E+02
    -17.088  0.0000E+00  0.1200E+02
    -16.987  0.0000E+00  0.1200E+02
    -16.885  0.0000E+00  0.1200E+02
    -16.784  0.0000E+00  0.1200E+02
    -16.682  0.0000E+00  0.1200E+02
    -16.581  0.0000E+00  0.1200E+02
    -16.479  0.0000E+00  0.1200E+02
    -16.378  0.0000E+00  0.1200E+02
    -16.276  0.0000E+00  0.1200E+02
    -16.175  0.0000E+00  0.1200E+02
    -16.073  0.0000E+00  0.1200E+02
    -15.972  0.0000E+00  0.1200E+02
    -15.870  0.0000E+00  0.1200E+02
    -15.769  0.0000E+00  0.1200E+02
    -15.667  0.0000E+00  0.1200E+02
    -15.566  0.0000E+00  0.1200E+02
    -15.464  0.0000E+00  0.1200E+02
    -15.362  0.0000E+00  0.1200E+02
    -15.261  0.0000E+00  0.1200E+02
    -15.159  0.0000E+00  0.1200E+02
    -15.058  0.0000E+00  0.1200E+02
    -14.956  0.0000E+00  0.1200E+02
    -14.855  0.0000E+00  0.1200E+02
    -14.753  0.0000E+00  0.1200E+02
    -14.652  0.0000E+00  0.1200E+02
    -14.550  0.0000E+00  0.1200E+02
    -14.449  0.0000E+00  0.1200E+02
    -14.347  0.0000E+00  0.1200E+02
    -14.246  0.0000E+00  0.1200E+02
    -14.144  0.0000E+00  0.1200E+02
    -14.043  0.0000E+00  0.1200E+02
    -13.941  0.0000E+00  0.1200E+02
    -13.840  0.0000E+00  0.1200E+02
    -13.738  0.0000E+00  0.1200E+02
    -13.636  0.0000E+00  0.1200E+02
    -13.535  0.0000E+00  0.1200E+02
    -13.433  0.0000E+00  0.1200E+02
    -13.332  0.0000E+00  0.1200E+02
    -13.230  0.0000E+00  0.1200E+02
    -13.129  0.0000E+00  0.1200E+02
    -13.027  0.0000E+00  0.1200E+02
    -12.926  0.0000E+00  0.1200E+02
    -12.824  0.0000E+00  0.1200E+02
    -12.723  0.0000E+00  0.1200E+02
    -12.621  0.0000E+00  0.1200E+02
    -12.520  0.0000E+00  0.1200E+02
    -12.418  0.0000E+00  0.1200E+02
    -12.317  0.0000E+00  0.1200E+02
    -12.215  0.0000E+00  0.1200E+02
    -12.114  0.0000E+00  0.1200E+02
    -12.012  0.0000E+00  0.1400E+02
    -11.910  0.0000E+00  0.1400E+02
    -11.809  0.0000E+00  0.1600E+02
    -11.707  0.0000E+00  0.1800E+02
    -11.606  0.0000E+00  0.1800E+02
    -11.504  0.0000E+00  0.1800E+02
    -11.403  0.0000E+00  0.1800E+02
    -11.301  0.0000E+00  0.1800E+02
    -11.200  0.0000E+00  0.2000E+02
    -11.098  0.0000E+00  0.2000E+02
    -10.997  0.3312E+03  0.2003E+02
    -10.895  0.0000E+00  0.2200E+02
    -10.794  0.0000E+00  0.2200E+02
    -10.692  0.0000E+00  0.2200E+02
    -10.591  0.0000E+00  0.2200E+02
    -10.489  0.0000E+00  0.2200E+02
    -10.387  0.0000E+00  0.2200E+02
    -10.286  0.0000E+00  0.2200E+02
    -10.184  0.0000E+00  0.2200E+02
    -10.083  0.0000E+00  0.2200E+02
     -9.981  0.0000E+00  0.2200E+02
     -9.880  0.0000E+00  0.2200E+02
     -9.778  0.0000E+00  0.2200E+02
     -9.677  0.0000E+00  0.2400E+02
     -9.575  0.0000E+00  0.2400E+02
     -9.474  0.0000E+00  0.2400E+02
     -9.372  0.0000E+00  0.2400E+02
     -9.271  0.0000E+00  0.2400E+02
     -9.169  0.0000E+00  0.2400E+02
     -9.068  0.0000E+00  0.2400E+02
     -8.966  0.0000E+00  0.2400E+02
     -8.865  0.0000E+00  0.2600E+02
     -8.763  0.0000E+00  0.2600E+02
     -8.661  0.0000E+00  0.2600E+02
     -8.560  0.0000E+00  0.3000E+02
     -8.458  0.0000E+00  0.3000E+02
     -8.357  0.0000E+00  0.3000E+02
     -8.255  0.0000E+00  0.3000E+02
     -8.154  0.0000E+00  0.3000E+02
     -8.052  0.0000E+00  0.3200E+02
     -7.951  0.0000E+00  0.3200E+02
     -7.849  0.0000E+00  0.3400E+02
     -7.748  0.0000E+00  0.3400E+02
     -7.646  0.0000E+00  0.3400E+02
     -7.545  0.0000E+00  0.3400E+02
     -7.443  0.0000E+00  0.3400E+02
     -7.342  0.0000E+00  0.3400E+02
     -7.240  0.2145E+00  0.3400E+02
     -7.139  0.5250E+01  0.3428E+02
     -7.037  0.4907E+02  0.3646E+02
     -6.935  0.0000E+00  0.3800E+02
     -6.834  0.7267E+01  0.3899E+02
     -6.732  0.4608E+01  0.3959E+02
     -6.631  0.3534E+01  0.3994E+02
     -6.529  0.3044E+02  0.4117E+02
     -6.428  0.6988E+01  0.4407E+02
     -6.326  0.1308E+02  0.4631E+02
     -6.225  0.2973E+02  0.4911E+02
     -6.123  0.3545E+01  0.4985E+02
     -6.022  0.3060E+02  0.5122E+02
     -5.920  0.9493E+01  0.5368E+02
     -5.819  0.5633E+01  0.5547E+02
     -5.717  0.1224E+02  0.5638E+02
     -5.616  0.9598E+01  0.5791E+02
     -5.514  0.2806E+02  0.5988E+02
     -5.412  0.6015E+01  0.6091E+02
     -5.311  0.4332E+01  0.6143E+02
     -5.209  0.1744E+02  0.6245E+02
     -5.108  0.7458E+01  0.6371E+02
     -5.006  0.4978E+01  0.6403E+02
     -4.905  0.7867E+01  0.6634E+02
     -4.803  0.7695E+01  0.6725E+02
     -4.702  0.3684E+01  0.6783E+02
     -4.600  0.2031E+02  0.6875E+02
     -4.499  0.6092E+01  0.6961E+02
     -4.397  0.5965E+01  0.7021E+02
     -4.296  0.2324E+02  0.7109E+02
     -4.194  0.1614E+02  0.7349E+02
     -4.093  0.7730E+01  0.7526E+02
     -3.991  0.2104E+02  0.7709E+02
     -3.890  0.6371E+01  0.7870E+02
     -3.788  0.1453E+01  0.8028E+02
     -3.686  0.8188E+01  0.8067E+02
     -3.585  0.2429E+02  0.8238E+02
     -3.483  0.1232E+02  0.8441E+02
     -3.382  0.3683E+02  0.8573E+02
     -3.280  0.6941E+01  0.8714E+02
     -3.179  0.6947E+01  0.8783E+02
     -3.077  0.7283E+01  0.8855E+02
     -2.976  0.7619E+01  0.8931E+02
     -2.874  0.2502E+02  0.9158E+02
     -2.773  0.1713E+02  0.9344E+02
     -2.671  0.3469E+02  0.9510E+02
     -2.570  0.2414E+02  0.9796E+02
     -2.468  0.1511E+02  0.1005E+03
     -2.367  0.2491E+02  0.1022E+03
     -2.265  0.6568E+01  0.1039E+03
     -2.164  0.2254E+02  0.1059E+03
     -2.062  0.4336E+01  0.1075E+03
     -1.960  0.4884E+01  0.1093E+03
     -1.859  0.3771E+02  0.1103E+03
     -1.757  0.7613E+01  0.1115E+03
     -1.656  0.2279E+02  0.1130E+03
     -1.554  0.3028E+02  0.1157E+03
     -1.453  0.2698E+02  0.1187E+03
     -1.351  0.2391E+02  0.1215E+03
     -1.250  0.2221E+02  0.1237E+03
     -1.148  0.1407E+02  0.1253E+03
     -1.047  0.1475E+02  0.1268E+03
     -0.945  0.1786E+02  0.1285E+03
     -0.844  0.4396E+02  0.1305E+03
     -0.742  0.1794E+02  0.1324E+03
     -0.641  0.2848E+02  0.1348E+03
     -0.539  0.1180E+02  0.1370E+03
     -0.437  0.2455E+02  0.1395E+03
     -0.336  0.2258E+02  0.1424E+03
     -0.234  0.3319E+02  0.1445E+03
     -0.133  0.1747E+02  0.1464E+03
     -0.031  0.2174E+02  0.1480E+03
      0.070  0.1197E+02  0.1495E+03
      0.172  0.2608E+02  0.1514E+03
      0.273  0.0000E+00  0.1540E+03
      0.375  0.5625E+02  0.1575E+03
      0.476  0.2327E+01  0.1600E+03
      0.578  0.1700E+02  0.1620E+03
      0.679  0.5514E+02  0.1653E+03
      0.781  0.8869E+01  0.1676E+03
      0.882  0.3323E+02  0.1701E+03
      0.984  0.1854E+02  0.1731E+03
      1.085  0.1366E+02  0.1751E+03
      1.187  0.4057E+02  0.1777E+03
      1.289  0.3381E+02  0.1806E+03
      1.390  0.3231E+02  0.1837E+03
      1.492  0.3312E+02  0.1869E+03
      1.593  0.4238E+02  0.1905E+03
      1.695  0.4072E+02  0.1948E+03
      1.796  0.2336E+02  0.1985E+03
      1.898  0.1874E+02  0.2011E+03
      1.999  0.8942E+01  0.2024E+03
      2.101  0.5844E+01  0.2031E+03
      2.202  0.3248E+01  0.2036E+03
      2.304  0.1724E+01  0.2040E+03
      2.405  0.0000E+00  0.2040E+03
      2.507  0.0000E+00  0.2040E+03
      2.608  0.0000E+00  0.2040E+03
      2.710  0.0000E+00  0.2040E+03
      2.811  0.0000E+00  0.2040E+03
      2.913  0.0000E+00  0.2040E+03
      3.015  0.0000E+00  0.2040E+03
      3.116  0.0000E+00  0.2040E+03
      3.218  0.0000E+00  0.2040E+03
      3.319  0.0000E+00  0.2040E+03
      3.421  0.0000E+00  0.2040E+03
      3.522  0.0000E+00  0.2040E+03
      3.624  0.0000E+00  0.2040E+03
      3.725  0.0000E+00  0.2040E+03
      3.827  0.0000E+00  0.2040E+03
      3.928  0.0000E+00  0.2040E+03
      4.030  0.0000E+00  0.2040E+03
      4.131  0.0000E+00  0.2040E+03
      4.233  0.0000E+00  0.2040E+03
      4.334  0.0000E+00  0.2040E+03
