 vasp.5.4.4.18Apr17-6-g9f103f2a35 (build Jun 08 2018 12:06:12) complex          
  
 executed on             LinuxIFC date 2019.06.06  07:48:22
 running on   72 total cores
 distrk:  each k-point on   72 cores,    1 groups
 distr:  one band on NCORES_PER_BAND=  24 cores,    3 groups


--------------------------------------------------------------------------------------------------------


 INCAR:
 POTCAR:    PAW_PBE Mg 13Apr2007                  
 POTCAR:    PAW_PBE O 08Apr2002                   
 POTCAR:    PAW_PBE H 15Jun2001                   

 ----------------------------------------------------------------------------- 
|                                                                             |
|           W    W    AA    RRRRR   N    N  II  N    N   GGGG   !!!           |
|           W    W   A  A   R    R  NN   N  II  NN   N  G    G  !!!           |
|           W    W  A    A  R    R  N N  N  II  N N  N  G       !!!           |
|           W WW W  AAAAAA  RRRRR   N  N N  II  N  N N  G  GGG   !            |
|           WW  WW  A    A  R   R   N   NN  II  N   NN  G    G                |
|           W    W  A    A  R    R  N    N  II  N    N   GGGG   !!!           |
|                                                                             |
|      For optimal performance we recommend to set                            |
|        NCORE= 4 - approx SQRT( number of cores)                             |
|      NCORE specifies how many cores store one orbital (NPAR=cpu/NCORE).     |
|      This setting can  greatly improve the performance of VASP for DFT.     |
|      The default,   NCORE=1            might be grossly inefficient         |
|      on modern multi-core architectures or massively parallel machines.     |
|      Do your own testing !!!!                                               |
|      Unfortunately you need to use the default for GW and RPA calculations. |
|      (for HF NCORE is supported but not extensively tested yet)             |
|                                                                             |
 ----------------------------------------------------------------------------- 


 ----------------------------------------------------------------------------- 
|                                                                             |
|  ADVICE TO THIS USER RUNNING 'VASP/VAMP'   (HEAR YOUR MASTER'S VOICE ...):  |
|                                                                             |
|      You have switched on vdW-DFT.                                          |
|      This routine was written and supplied by Jiri Klimes.                  |
|      We recommed that you carefully read and cite the following             |
|      publication                                                            |
|      J. Klimes, D.R. Bowler, A. Michelides                                  |
|        J. Phys.: Cond Matt. 22 022201 (2010)                                |
|      J. Klimes, D.R. Bowler, A. Michelides                                  |
|        Phys. Rev. B. 83, 195131 (2011)                                      |
|      and references therein.                                                |
|                                                                             |
 ----------------------------------------------------------------------------- 

 POTCAR:    PAW_PBE Mg 13Apr2007                  
   VRHFIN =Mg: s2p0                                                             
   LEXCH  = PE                                                                  
   EATOM  =    23.0369 eV,    1.6932 Ry                                         
                                                                                
   TITEL  = PAW_PBE Mg 13Apr2007                                                
   LULTRA =        F    use ultrasoft PP ?                                      
   IUNSCR =        1    unscreen: 0-lin 1-nonlin 2-no                           
   RPACOR =    1.500    partial core radius                                     
   POMASS =   24.305; ZVAL   =    2.000    mass and valenz                      
   RCORE  =    2.000    outmost cutoff radius                                   
   RWIGS  =    2.880; RWIGS  =    1.524    wigner-seitz radius (au A)           
   ENMAX  =  200.000; ENMIN  =  100.000 eV                                      
   RCLOC  =    1.506    cutoff for local pot                                    
   LCOR   =        T    correct aug charges                                     
   LPAW   =        T    paw PP                                                  
   EAUG   =  454.734                                                            
   DEXC   =    0.000                                                            
   RMAX   =    2.045    core radius for proj-oper                               
   RAUG   =    1.300    factor for augmentation sphere                          
   RDEP   =    2.025    radius for radial grids                                 
   RDEPT  =    1.942    core radius for aug-charge                              
                                                                                
   Atomic configuration                                                         
    6 entries                                                                   
     n  l   j            E        occ.                                          
     1  0  0.50     -1259.6230   2.0000                                         
     2  0  0.50       -79.8442   2.0000                                         
     2  1  1.50       -46.6121   6.0000                                         
     3  0  0.50        -4.7055   2.0000                                         
     3  1  0.50        -1.3660   0.0000                                         
     3  2  1.50        -1.3606   0.0000                                         
   Description                                                                  
     l       E           TYP  RCUT    TYP  RCUT                                 
     0     -4.7054661     23  2.000                                             
     0     27.2116520     23  2.000                                             
     1      1.3605826     23  2.000                                             
     1     27.2116520     23  2.000                                             
     2     -1.3605826     23  2.000                                             
  local pseudopotential read in
  partial core-charges read in
  partial kinetic energy density read in
  atomic valenz-charges read in
  non local Contribution for L=           0  read in
    real space projection operators read in
  non local Contribution for L=           0  read in
    real space projection operators read in
  non local Contribution for L=           1  read in
    real space projection operators read in
  non local Contribution for L=           1  read in
    real space projection operators read in
  non local Contribution for L=           2  read in
    real space projection operators read in
    PAW grid and wavefunctions read in
 
   number of l-projection  operators is LMAX  =           5
   number of lm-projection operators is LMMAX =          13
 
 POTCAR:    PAW_PBE O 08Apr2002                   
   VRHFIN =O: s2p4                                                              
   LEXCH  = PE                                                                  
   EATOM  =   432.3788 eV,   31.7789 Ry                                         
                                                                                
   TITEL  = PAW_PBE O 08Apr2002                                                 
   LULTRA =        F    use ultrasoft PP ?                                      
   IUNSCR =        1    unscreen: 0-lin 1-nonlin 2-no                           
   RPACOR =    1.200    partial core radius                                     
   POMASS =   16.000; ZVAL   =    6.000    mass and valenz                      
   RCORE  =    1.520    outmost cutoff radius                                   
   RWIGS  =    1.550; RWIGS  =    0.820    wigner-seitz radius (au A)           
   ENMAX  =  400.000; ENMIN  =  300.000 eV                                      
   ICORE  =        2    local potential                                         
   LCOR   =        T    correct aug charges                                     
   LPAW   =        T    paw PP                                                  
   EAUG   =  605.392                                                            
   DEXC   =    0.000                                                            
   RMAX   =    1.553    core radius for proj-oper                               
   RAUG   =    1.300    factor for augmentation sphere                          
   RDEP   =    1.550    radius for radial grids                                 
   RDEPT  =    1.329    core radius for aug-charge                              
                                                                                
   Atomic configuration                                                         
    4 entries                                                                   
     n  l   j            E        occ.                                          
     1  0  0.50      -514.6923   2.0000                                         
     2  0  0.50       -23.9615   2.0000                                         
     2  1  0.50        -9.0305   4.0000                                         
     3  2  1.50        -9.5241   0.0000                                         
   Description                                                                  
     l       E           TYP  RCUT    TYP  RCUT                                 
     0    -23.9615318     23  1.200                                             
     0     -9.5240782     23  1.200                                             
     1     -9.0304911     23  1.520                                             
     1      8.1634956     23  1.520                                             
     2     -9.5240782      7  1.500                                             
  local pseudopotential read in
  partial core-charges read in
  partial kinetic energy density read in
  kinetic energy density of atom read in
  atomic valenz-charges read in
  non local Contribution for L=           0  read in
    real space projection operators read in
  non local Contribution for L=           0  read in
    real space projection operators read in
  non local Contribution for L=           1  read in
    real space projection operators read in
  non local Contribution for L=           1  read in
    real space projection operators read in
    PAW grid and wavefunctions read in
 
   number of l-projection  operators is LMAX  =           4
   number of lm-projection operators is LMMAX =           8
 
 POTCAR:    PAW_PBE H 15Jun2001                   
   VRHFIN =H: ultrasoft test                                                    
   LEXCH  = PE                                                                  
   EATOM  =    12.4884 eV,    0.9179 Ry                                         
                                                                                
   TITEL  = PAW_PBE H 15Jun2001                                                 
   LULTRA =        F    use ultrasoft PP ?                                      
   IUNSCR =        0    unscreen: 0-lin 1-nonlin 2-no                           
   RPACOR =    0.000    partial core radius                                     
   POMASS =    1.000; ZVAL   =    1.000    mass and valenz                      
   RCORE  =    1.100    outmost cutoff radius                                   
   RWIGS  =    0.700; RWIGS  =    0.370    wigner-seitz radius (au A)           
   ENMAX  =  250.000; ENMIN  =  200.000 eV                                      
   RCLOC  =    0.701    cutoff for local pot                                    
   LCOR   =        T    correct aug charges                                     
   LPAW   =        T    paw PP                                                  
   EAUG   =  400.000                                                            
   RMAX   =    1.123    core radius for proj-oper                               
   RAUG   =    1.200    factor for augmentation sphere                          
   RDEP   =    1.112    radius for radial grids                                 
   RDEPT  =    0.926    core radius for aug-charge                              
                                                                                
   Atomic configuration                                                         
    2 entries                                                                   
     n  l   j            E        occ.                                          
     1  0  0.50        -6.4927   1.0000                                         
     2  1  0.50        -3.4015   0.0000                                         
   Description                                                                  
     l       E           TYP  RCUT    TYP  RCUT                                 
     0     -6.4927494     23  1.100                                             
     0      6.8029130     23  1.100                                             
     1     -4.0817478     23  1.100                                             
  local pseudopotential read in
  atomic valenz-charges read in
  non local Contribution for L=           0  read in
    real space projection operators read in
  non local Contribution for L=           0  read in
    real space projection operators read in
  non local Contribution for L=           1  read in
    real space projection operators read in
    PAW grid and wavefunctions read in
 
   number of l-projection  operators is LMAX  =           3
   number of lm-projection operators is LMMAX =           5
 
 Optimization of the real space projectors (new method)

 maximal supplied QI-value         = 18.90
 optimisation between [QCUT,QGAM] = [ 11.53, 23.24] = [ 37.21,151.29] Ry 
 Optimized for a Real-space Cutoff    1.28 Angstroem

   l    n(q)    QCUT    max X(q) W(low)/X(q) W(high)/X(q)  e(spline) 
   0      9    11.527    28.265    0.62E-04    0.53E-04    0.73E-07
   0      9    11.527    10.429    0.52E-04    0.40E-04    0.58E-07
   1      8    11.527    13.073    0.98E-04    0.18E-03    0.86E-07
   1      8    11.527     9.625    0.79E-04    0.15E-03    0.74E-07
   2      8    11.527     4.652    0.22E-03    0.72E-04    0.47E-07
 Optimization of the real space projectors (new method)

 maximal supplied QI-value         = 24.76
 optimisation between [QCUT,QGAM] = [ 11.64, 23.27] = [ 37.91,151.63] Ry 
 Optimized for a Real-space Cutoff    1.14 Angstroem

   l    n(q)    QCUT    max X(q) W(low)/X(q) W(high)/X(q)  e(spline) 
   0      8    11.635    20.381    0.10E-03    0.33E-03    0.24E-06
   0      8    11.635    15.268    0.11E-03    0.35E-03    0.26E-06
   1      7    11.635     5.964    0.24E-03    0.31E-03    0.30E-06
   1      7    11.635     5.382    0.22E-03    0.25E-03    0.26E-06
 Optimization of the real space projectors (new method)

 maximal supplied QI-value         = 34.20
 optimisation between [QCUT,QGAM] = [ 11.63, 23.26] = [ 37.87,151.49] Ry 
 Optimized for a Real-space Cutoff    1.21 Angstroem

   l    n(q)    QCUT    max X(q) W(low)/X(q) W(high)/X(q)  e(spline) 
   0      8    11.629    19.460    0.17E-03    0.34E-03    0.21E-06
   0      8    11.629    12.209    0.16E-03    0.33E-03    0.21E-06
   1      8    11.629     4.655    0.18E-03    0.16E-03    0.26E-06

 ----------------------------------------------------------------------------- 
|                                                                             |
|  ADVICE TO THIS USER RUNNING 'VASP/VAMP'   (HEAR YOUR MASTER'S VOICE ...):  |
|                                                                             |
|      You enforced a specific xc-type in the INCAR file,                     |
|      a different type was found on the POTCAR file                          |
|          I HOPE YOU KNOW, WHAT YOU ARE  DOING                               |
|                                                                             |
 ----------------------------------------------------------------------------- 

  PAW_PBE Mg 13Apr2007                  :
 energy of atom  1       EATOM=  -23.0369
 kinetic energy error for atom=    0.0000 (will be added to EATOM!!)
  PAW_PBE O 08Apr2002                   :
 energy of atom  2       EATOM= -432.3788
 kinetic energy error for atom=    0.0208 (will be added to EATOM!!)
  PAW_PBE H 15Jun2001                   :
 energy of atom  3       EATOM=  -12.4884
 kinetic energy error for atom=    0.0014 (will be added to EATOM!!)
 
 
 POSCAR: Mg   O    H                             
  positions in direct lattice
  No initial velocities read in
 exchange correlation table for  LEXCH =       42
   RHO(1)=    0.500       N(1)  =     2000
   RHO(2)=  100.500       N(2)  =     4000

 VTST: version 3.2, (02/03/18)

 CHAIN: initializing optimizer
 
 OPT: Using VASP Dynamics algorithm
 CHAIN: Read ICHAIN            0
 
 POSCAR: Mg   O    H                             
  positions in direct lattice
  No initial velocities read in
 


--------------------------------------------------------------------------------------------------------


 ion  position               nearest neighbor table
   1  0.000  0.000  0.000-   7 3.19  25 3.19  19 3.19  10 3.19   4 3.19  13 3.19  44 3.19  32 3.19
                            28 3.19
   2  1.000  0.999  0.160-  33 3.14  29 3.14  26 3.17  45 3.17   8 3.18  44 3.18  20 3.19  14 3.19
                            32 3.19  28 3.19  11 3.19   5 3.20
   3  0.002  0.007  0.332-  46 2.17  15 3.11   6 3.17  21 3.20  12 3.22  27 3.26   9 3.28  45 3.53
                            29 3.54  33 3.57
   4  0.000  0.333  0.000-  22 3.19  13 3.19  19 3.19  16 3.19   1 3.19   7 3.19  40 3.19  30 3.19
                            28 3.19
   5  0.001  0.334  0.159-  29 3.16  30 3.17   8 3.18  17 3.18  40 3.18  28 3.18  41 3.19  23 3.19
                            14 3.19  31 3.20   2 3.20  20 3.20
   6  0.997  0.331  0.314-  41 3.07  31 3.08  29 3.10  21 3.14  15 3.15   3 3.17   9 3.19  18 3.21
                            24 3.28
   7  0.000  0.667  0.000-   1 3.19  10 3.19  25 3.19  16 3.19  22 3.19   4 3.19  42 3.19  32 3.19
                            30 3.19
   8  0.002  0.668  0.159-  43 3.15  32 3.15  30 3.16  17 3.17  42 3.17  11 3.18  33 3.18   5 3.18
                             2 3.18  26 3.19  23 3.20  31 3.22
   9  0.002  0.666  0.317-  50 2.12  18 3.11  31 3.13  33 3.16  12 3.17   6 3.19  43 3.21  27 3.26
                             3 3.28  24 3.39
  10  0.333  0.000  0.000-  16 3.19   7 3.19  19 3.19   1 3.19  22 3.19  13 3.19  32 3.19  34 3.19
                            38 3.19
  11  0.334  0.000  0.159-  34 3.17  38 3.17  32 3.17  14 3.18  17 3.18   8 3.18  23 3.18  20 3.18
                             2 3.19  33 3.19  35 3.22  39 3.22
  12  0.330  0.000  0.313-  33 3.04  35 3.06  39 3.06  15 3.14  24 3.15   9 3.17   3 3.22  18 3.23
                            21 3.24
  13  0.333  0.333  0.000-  22 3.19   4 3.19  10 3.19   1 3.19  25 3.19  16 3.19  28 3.19  36 3.19
                            34 3.19
  14  0.333  0.332  0.158-  37 3.12  34 3.15  28 3.16  36 3.16  11 3.18  23 3.18  29 3.18   2 3.19
                             5 3.19  35 3.19  26 3.20  17 3.20
  15  0.324  0.325  0.316-  61 1.98  29 3.09   3 3.11  35 3.11  12 3.14   6 3.15  37 3.23  27 3.28
                            24 3.28  18 3.30
  16  0.333  0.667  0.000-  10 3.19  19 3.19   7 3.19  25 3.19   4 3.19  13 3.19  38 3.19  30 3.19
                            36 3.19
  17  0.333  0.668  0.159-  37 3.11  39 3.17   8 3.17  38 3.17  30 3.17  11 3.18  31 3.18  20 3.18
                             5 3.18  36 3.18  26 3.20  14 3.20
  18  0.323  0.666  0.333-  61 2.01  51 2.16   9 3.11   6 3.21  12 3.23  27 3.27  21 3.30  15 3.30
                            31 3.50  39 3.54
  19  0.667  0.000  0.000-  25 3.19  16 3.19   1 3.19  10 3.19   4 3.19  22 3.19  38 3.19  44 3.19
                            40 3.19
  20  0.666  0.999  0.159-  26 3.17  38 3.18  44 3.18  17 3.18  11 3.18  40 3.18   2 3.19  41 3.19
                            23 3.19  39 3.19   5 3.20  45 3.21
  21  0.669  0.001  0.317-  45 3.12  27 3.13  24 3.13  39 3.14  41 3.14   6 3.14   3 3.20  12 3.24
                            18 3.30
  22  0.667  0.333  0.000-  13 3.19   4 3.19  10 3.19  25 3.19   7 3.19  19 3.19  34 3.19  42 3.19
                            40 3.19
  23  0.666  0.333  0.160-  43 3.11  35 3.14  41 3.15  14 3.18  11 3.18  34 3.18  42 3.19  40 3.19
                             5 3.19  20 3.19  26 3.19   8 3.20
  24  0.654  0.315  0.336-  50 2.09  49 2.26  21 3.13  12 3.15  15 3.28   6 3.28   9 3.39  27 3.43
                            35 3.58  41 3.62
  25  0.667  0.667  0.000-   1 3.19  19 3.19   7 3.19  16 3.19  22 3.19  13 3.19  36 3.19  42 3.19
                            44 3.19
  26  0.668  0.668  0.158-  37 3.13  44 3.14  42 3.15  36 3.15  43 3.16   2 3.17  20 3.17   8 3.19
                            23 3.19  17 3.20  14 3.20  45 3.23
  27  0.663  0.672  0.316-  61 1.96  50 2.08  45 3.07  21 3.13  37 3.17  43 3.21   9 3.26   3 3.26
                            18 3.27  15 3.28  24 3.43
  28  0.111  0.222  0.080-  14 3.16   5 3.18  44 3.19  32 3.19  40 3.19  34 3.19  36 3.19  30 3.19
                             1 3.19  13 3.19   4 3.19   2 3.19
  29  0.110  0.220  0.238-  15 3.09   6 3.10   2 3.14  45 3.15  33 3.15   5 3.16  14 3.18  37 3.20
                            31 3.20  35 3.21  41 3.22   3 3.54
  30  0.111  0.556  0.080-   8 3.16  17 3.17   5 3.17  32 3.19  42 3.19  38 3.19  40 3.19  36 3.19
                            28 3.19  16 3.19   7 3.19   4 3.19
  31  0.115  0.558  0.239-   6 3.08   9 3.13  39 3.13  37 3.17  17 3.18   5 3.20  33 3.20  29 3.20
                            43 3.21   8 3.22  41 3.22  18 3.50
  32  0.111  0.889  0.080-   8 3.15  11 3.17  28 3.19  34 3.19  44 3.19  30 3.19  42 3.19  38 3.19
                             2 3.19  10 3.19   1 3.19   7 3.19
  33  0.107  0.889  0.238-  12 3.04  45 3.13   2 3.14  29 3.15   9 3.16  43 3.17   8 3.18  11 3.19
                            31 3.20  39 3.24  35 3.26   3 3.57
  34  0.444  0.222  0.080-  14 3.15  11 3.17  23 3.18  38 3.19  40 3.19  32 3.19  42 3.19  28 3.19
                            36 3.19  22 3.19  10 3.19  13 3.19
  35  0.450  0.229  0.239-  12 3.06  15 3.11  43 3.12  41 3.13  23 3.14  37 3.15  14 3.19  29 3.21
                            11 3.22  33 3.26  39 3.27  24 3.58
  36  0.444  0.556  0.080-  26 3.15  14 3.16  17 3.18  42 3.19  38 3.19  44 3.19  30 3.19  28 3.19
                            34 3.19  25 3.19  13 3.19  16 3.19
  37  0.445  0.555  0.236-  17 3.11  14 3.12  26 3.13  39 3.14  35 3.15  31 3.17  27 3.17  43 3.19
                            29 3.20  45 3.21  15 3.23
  38  0.444  0.889  0.080-  11 3.17  17 3.17  20 3.18  40 3.19  34 3.19  44 3.19  36 3.19  30 3.19
                            32 3.19  19 3.19  16 3.19  10 3.19
  39  0.444  0.883  0.239-  12 3.06  31 3.13  21 3.14  37 3.14  17 3.17  45 3.19  20 3.19  41 3.21
                            11 3.22  33 3.24  35 3.27  18 3.54
  40  0.778  0.222  0.080-  20 3.18   5 3.18  38 3.19  34 3.19  44 3.19  28 3.19  30 3.19  42 3.19
                            23 3.19   4 3.19  19 3.19  22 3.19
  41  0.775  0.224  0.239-   6 3.07  35 3.13  21 3.14  23 3.15  43 3.15  20 3.19   5 3.19  39 3.21
                            31 3.22  45 3.22  29 3.22  24 3.62
  42  0.778  0.556  0.080-  26 3.15   8 3.17  36 3.19  44 3.19  30 3.19  32 3.19  34 3.19  40 3.19
                            23 3.19  25 3.19   7 3.19  22 3.19
  43  0.778  0.555  0.237-  23 3.11  35 3.12   8 3.15  41 3.15  26 3.16  33 3.17  37 3.19  45 3.19
                             9 3.21  31 3.21  27 3.21
  44  0.778  0.889  0.080-  26 3.14  20 3.18   2 3.18  28 3.19  40 3.19  42 3.19  32 3.19  38 3.19
                            36 3.19   1 3.19  19 3.19  25 3.19
  45  0.781  0.890  0.239-  27 3.07  21 3.12  33 3.13  29 3.15   2 3.17  39 3.19  43 3.19  20 3.21
                            37 3.21  41 3.22  26 3.23   3 3.53
  46  0.992  0.982  0.398-  53 0.99  52 0.99   3 2.17
  47  0.271  0.938  0.414-  54 0.99  55 1.01
  48  0.884  0.214  0.416-  56 0.98  57 1.01
  49  0.622  0.261  0.403-  58 0.98  59 1.00  24 2.26
  50  0.775  0.564  0.347-  60 0.98  27 2.08  24 2.09   9 2.12
  51  0.349  0.695  0.398-  63 0.98  62 1.00  18 2.16
  52  0.962  0.053  0.413-  46 0.99
  53  0.086  0.986  0.412-  46 0.99
  54  0.376  0.039  0.411-  47 0.99
  55  0.233  0.911  0.385-  47 1.01
  56  0.982  0.319  0.420-  48 0.98
  57  0.875  0.201  0.386-  48 1.01
  58  0.616  0.338  0.422-  49 0.98
  59  0.711  0.244  0.414-  49 1.00
  60  0.793  0.596  0.376-  50 0.98
  61  0.445  0.546  0.339-  27 1.96  15 1.98  18 2.01
  62  0.326  0.778  0.409-  51 1.00
  63  0.462  0.731  0.406-  51 0.98
 
  LATTYP: Found a hexagonal cell.
 ALAT       =     9.5557527542
 C/A-ratio  =     3.4141837076
  
  Lattice vectors:
  
 A1 = (   9.5557527542,   0.0000000000,   0.0000000000)
 A2 = (  -4.7778763771,   8.2755246374,   0.0000000000)
 A3 = (   0.0000000000,   0.0000000000,  32.6250953674)


Analysis of symmetry for initial positions (statically):
=====================================================================
 Subroutine PRICEL returns:
 Original cell was already a primitive cell.
 

 Routine SETGRP: Setting up the symmetry group for a 
 hexagonal supercell.


 Subroutine GETGRP returns: Found  1 space group operations
 (whereof  1 operations were pure point group operations)
 out of a pool of 24 trial point group operations.


The static configuration has the point symmetry C_1 .


Analysis of symmetry for dynamics (positions and initial velocities):
=====================================================================
 Subroutine PRICEL returns:
 Original cell was already a primitive cell.
 

 Routine SETGRP: Setting up the symmetry group for a 
 hexagonal supercell.


 Subroutine GETGRP returns: Found  1 space group operations
 (whereof  1 operations were pure point group operations)
 out of a pool of 24 trial point group operations.


The dynamic configuration has the point symmetry C_1 .


Analysis of constrained symmetry for selective dynamics:
=====================================================================
 Subroutine PRICEL returns:
 Original cell was already a primitive cell.
 

 Routine SETGRP: Setting up the symmetry group for a 
 hexagonal supercell.


 Subroutine GETGRP returns: Found  1 space group operations
 (whereof  1 operations were pure point group operations)
 out of a pool of 24 trial point group operations.


The constrained configuration has the point symmetry C_1 .


 Subroutine INISYM returns: Found  1 space group operations
 (whereof  1 operations are pure point group operations),
 and found     1 'primitive' translations

 
 
 KPOINTS: Auto                                    

Automatic generation of k-mesh.
Space group operators:
 irot       det(A)        alpha          n_x          n_y          n_z        tau_x        tau_y        tau_z
    1     1.000000     0.000000     1.000000     0.000000     0.000000     0.000000     0.000000     0.000000
 
 Subroutine IBZKPT returns following result:
 ===========================================
 
 Found      5 irreducible k-points:
 
 Following reciprocal coordinates:
            Coordinates               Weight
  0.000000  0.000000  0.000000      1.000000
  0.333333 -0.000000  0.000000      2.000000
  0.000000  0.333333  0.000000      2.000000
  0.333333  0.333333  0.000000      2.000000
 -0.333333  0.333333  0.000000      2.000000
 
 Following cartesian coordinates:
            Coordinates               Weight
  0.000000  0.000000  0.000000      1.000000
  0.034883  0.020140  0.000000      2.000000
  0.000000  0.040279  0.000000      2.000000
  0.034883  0.060419  0.000000      2.000000
 -0.034883  0.020140  0.000000      2.000000
 
 TETIRR: Found     24 inequivalent tetrahedra from       54


--------------------------------------------------------------------------------------------------------




 Dimension of arrays:
   k-points           NKPTS =      5   k-points in BZ     NKDIM =      5   number of bands    NBANDS=    102
   number of dos      NEDOS =    301   number of ions     NIONS =     63
   non local maximal  LDIM  =      5   non local SUM 2l+1 LMDIM =     13
   total plane-waves  NPLWV = ******
   max r-space proj   IRMAX =   4509   max aug-charges    IRDMAX=  21536
   dimension x,y,z NGX =    72 NGY =   72 NGZ =  250
   dimension x,y,z NGXF=   144 NGYF=  144 NGZF=  500
   support grid    NGXF=   144 NGYF=  144 NGZF=  500
   ions per type =              45   6  12
   NGX,Y,Z   is equivalent  to a cutoff of  12.53, 12.53, 12.74 a.u.
   NGXF,Y,Z  is equivalent  to a cutoff of  25.05, 25.05, 25.48 a.u.

 SYSTEM =  Mg_slab_in_a_box                        
 POSCAR =  Mg   O    H                             

 Startparameter for this run:
   NWRITE =      2    write-flag & timer
   PREC   = accura    normal or accurate (medium, high low for compatibility)
   ISTART =      0    job   : 0-new  1-cont  2-samecut
   ICHARG =      2    charge: 1-file 2-atom 10-const
   ISPIN  =      1    spin polarized calculation?
   LNONCOLLINEAR =      F non collinear calculations
   LSORBIT =      F    spin-orbit coupling
   INIWAV =      1    electr: 0-lowe 1-rand  2-diag
   LASPH  =      T    aspherical Exc in radial PAW
   METAGGA=      F    non-selfconsistent MetaGGA calc.

 Electronic Relaxation 1
   ENCUT  =  520.0 eV  38.22 Ry    6.18 a.u.  17.77 17.77 60.66*2*pi/ulx,y,z
   ENINI  =  520.0     initial cutoff
   ENAUG  =  605.4 eV  augmentation charge cutoff
   NELM   =    300;   NELMIN=  6; NELMDL=-12     # of ELM steps 
   EDIFF  = 0.5E-05   stopping-criterion for ELM
   LREAL  =      T    real-space projection
   NLSPLINE    = F    spline interpolate recip. space projectors
   LCOMPAT=      F    compatible to vasp.4.4
   GGA_COMPAT  = T    GGA compatible to vasp.4.4-vasp.4.6
   LMAXPAW     = -100 max onsite density
   LMAXMIX     =    2 max onsite mixed and CHGCAR
   VOSKOWN=      0    Vosko Wilk Nusair interpolation
   ROPT   =   -0.00025  -0.00025  -0.00025
 Ionic relaxation
   EDIFFG = 0.5E-04   stopping-criterion for IOM
   NSW    =      0    number of steps for IOM
   NBLOCK =      1;   KBLOCK =      1    inner block; outer block 
   IBRION =     -1    ionic relax: 0-MD 1-quasi-New 2-CG
   NFREE  =      0    steps in history (QN), initial steepest desc. (CG)
   ISIF   =      2    stress and relaxation
   IWAVPR =     10    prediction:  0-non 1-charg 2-wave 3-comb
   ISYM   =      2    0-nonsym 1-usesym 2-fastsym
   LCORR  =      T    Harris-Foulkes like correction to forces

   POTIM  = 0.5000    time-step for ionic-motion
   TEIN   =    0.0    initial temperature
   TEBEG  =    0.0;   TEEND  =   0.0 temperature during run
   SMASS  =  -3.00    Nose mass-parameter (am)
   estimated Nose-frequenzy (Omega)   =  0.10E-29 period in steps =****** mass=  -0.209E-26a.u.
   SCALEE = 1.0000    scale energy and forces
   NPACO  =    256;   APACO  = 16.0  distance and # of slots for P.C.
   PSTRESS=    0.0 pullay stress

  Mass of Ions in am
   POMASS =  24.30 16.00  1.00
  Ionic Valenz
   ZVAL   =   2.00  6.00  1.00
  Atomic Wigner-Seitz radii
   RWIGS  =  -1.00 -1.00 -1.00
  virtual crystal weights 
   VCA    =   1.00  1.00  1.00
   NELECT =     138.0000    total number of electrons
   NUPDOWN=      -1.0000    fix difference up-down

 DOS related values:
   EMIN   =  10.00;   EMAX   =-10.00  energy-range for DOS
   EFERMI =   0.00
   ISMEAR =    -5;   SIGMA  =   0.20  broadening in eV -4-tet -1-fermi 0-gaus

 Electronic relaxation 2 (details)
   IALGO  =     48    algorithm
   LDIAG  =      T    sub-space diagonalisation (order eigenvalues)
   LSUBROT=      F    optimize rotation matrix (better conditioning)
   TURBO    =      0    0=normal 1=particle mesh
   IRESTART =      0    0=no restart 2=restart with 2 vectors
   NREBOOT  =      0    no. of reboots
   NMIN     =      0    reboot dimension
   EREF     =   0.00    reference energy to select bands
   IMIX   =      4    mixing-type and parameters
     AMIX     =   0.40;   BMIX     =  1.00
     AMIX_MAG =   1.60;   BMIX_MAG =  1.00
     AMIN     =   0.10
     WC   =   100.;   INIMIX=   1;  MIXPRE=   1;  MAXMIX= -45

 Intra band minimization:
   WEIMIN = 0.0000     energy-eigenvalue tresh-hold
   EBREAK =  0.12E-07  absolut break condition
   DEPER  =   0.30     relativ break condition  

   TIME   =   0.40     timestep for ELM

  volume/ion in A,a.u.               =      40.95       276.36
  Fermi-wavevector in a.u.,A,eV,Ry     =   0.616828  1.165635  5.176694  0.380476
  Thomas-Fermi vector in A             =   1.674695
 
 Write flags
   LWAVE        =      F    write WAVECAR
   LDOWNSAMPLE  =      F    k-point downsampling of WAVECAR
   LCHARG       =      T    write CHGCAR
   LVTOT        =      F    write LOCPOT, total local potential
   LVHAR        =      T    write LOCPOT, Hartree potential only
   LELF         =      F    write electronic localiz. function (ELF)
   LORBIT       =      0    0 simple, 1 ext, 2 COOP (PROOUT), +10 PAW based schemes


 Dipole corrections
   LMONO  =      F    monopole corrections only (constant potential shift)
   LDIPOL =      T    correct potential (dipole corrections)
   IDIPOL =      3    1-x, 2-y, 3-z, 4-all directions 
   EPSILON=  1.0000000 bulk dielectric constant

 Exchange correlation treatment:
   GGA     =    BO    GGA type
   LEXCH   =    42    internal setting for exchange type
   VOSKOWN=      0    Vosko Wilk Nusair interpolation
   LHFCALC =     F    Hartree Fock is set to
   LHFONE  =     F    Hartree Fock one center treatment
   AEXX    =    0.0000 exact exchange contribution

 vdW DFT:
   LUSE_VDW   =     T    switch on vdW DFT
   Zab_VDW    =-.8491    correlation parameter
   PARAM1     =0.1833
   PARAM2     =0.2200
   PARAM3     =0.0000
   -- rVV10 --
   BPARAM     = 6.3000
   CPARAM     = 0.0093

 Linear response parameters
   LEPSILON=     F    determine dielectric tensor
   LRPA    =     F    only Hartree local field effects (RPA)
   LNABLA  =     F    use nabla operator in PAW spheres
   LVEL    =     F    velocity operator in full k-point grid
   LINTERFAST=   F  fast interpolation
   KINTER  =     0    interpolate to denser k-point grid
   CSHIFT  =0.1000    complex shift for real part using Kramers Kronig
   OMEGAMAX=  -1.0    maximum frequency
   DEG_THRESHOLD= 0.2000000E-02 threshold for treating states as degnerate
   RTIME   =   -0.100 relaxation time in fs
  (WPLASMAI=    0.000 imaginary part of plasma frequency in eV, 0.658/RTIME)
   DFIELD  = 0.0000000 0.0000000 0.0000000 field for delta impulse in time
 
 Orbital magnetization related:
   ORBITALMAG=     F  switch on orbital magnetization
   LCHIMAG   =     F  perturbation theory with respect to B field
   DQ        =  0.001000  dq finite difference perturbation B field
   LLRAUG    =     F  two centre corrections for induced B field



--------------------------------------------------------------------------------------------------------


 Static calculation
 charge density and potential will be updated during run
 non-spin polarized calculation
 RMM-DIIS sequential band-by-band
 perform sub-space diagonalisation
    before iterative eigenvector-optimisation
 modified Broyden-mixing scheme, WC =      100.0
 initial mixing is a Kerker type mixing with AMIX =  0.4000 and BMIX =      1.0000
 Hartree-type preconditioning will be used
 using additional bands           33
 real space projection scheme for non local part
 use partial core corrections
 calculate Harris-corrections to forces 
   (improved forces if not selfconsistent)
 use gradient corrections 
 use of overlap-Matrix (Vanderbilt PP)
 Fermi weights with tetrahedron method with Bloechl corrections


--------------------------------------------------------------------------------------------------------


  energy-cutoff  :      520.00
  volume of cell :     2579.96
      direct lattice vectors                 reciprocal lattice vectors
     9.555752754  0.000000000  0.000000000     0.104649003  0.060419130  0.000000000
    -4.777876377  8.275524637  0.000000000     0.000000000  0.120838260  0.000000000
     0.000000000  0.000000000 32.625095367     0.000000000  0.000000000  0.030651251

  length of vectors
     9.555752754  9.555752754 32.625095367     0.120838260  0.120838260  0.030651251


 
 k-points in units of 2pi/SCALE and weight: Auto                                    
   0.00000000  0.00000000  0.00000000       0.111
   0.03488300  0.02013971  0.00000000       0.222
   0.00000000  0.04027942  0.00000000       0.222
   0.03488300  0.06041913  0.00000000       0.222
  -0.03488300  0.02013971  0.00000000       0.222
 
 k-points in reciprocal lattice and weights: Auto                                    
   0.00000000  0.00000000  0.00000000       0.111
   0.33333333 -0.00000000  0.00000000       0.222
   0.00000000  0.33333333  0.00000000       0.222
   0.33333333  0.33333333  0.00000000       0.222
  -0.33333333  0.33333333  0.00000000       0.222
 
 position of ions in fractional coordinates (direct lattice) 
   0.00000000  0.00000000  0.00000000
   0.99953511  0.99949758  0.15956100
   0.00204552  0.00659373  0.33188378
   0.00000001  0.33333336  0.00000000
   0.00053018  0.33449988  0.15932149
   0.99720109  0.33064826  0.31402817
   0.00000002  0.66666672  0.00000000
   0.00162084  0.66773672  0.15857186
   0.00155894  0.66645643  0.31682352
   0.33333334  0.00000000  0.00000000
   0.33390162  0.00035539  0.15891014
   0.32977440  0.00034781  0.31254921
   0.33333335  0.33333336  0.00000000
   0.33334125  0.33235447  0.15847302
   0.32371415  0.32548906  0.31555984
   0.33333336  0.66666672  0.00000000
   0.33295532  0.66754385  0.15911406
   0.32250049  0.66567253  0.33256568
   0.66666668  0.00000000  0.00000000
   0.66617391  0.99940370  0.15925172
   0.66877710  0.00141810  0.31660214
   0.66666668  0.33333336  0.00000000
   0.66614512  0.33330564  0.15954382
   0.65442605  0.31508567  0.33551480
   0.66666670  0.66666672  0.00000000
   0.66781120  0.66826850  0.15813924
   0.66308875  0.67155404  0.31551880
   0.11111113  0.22222222  0.07982145
   0.11013415  0.22025163  0.23791348
   0.11111114  0.55555561  0.07982145
   0.11485286  0.55783679  0.23924534
   0.11111116  0.88888894  0.07982145
   0.10742214  0.88879165  0.23819924
   0.44444450  0.22222222  0.07982145
   0.45045319  0.22904949  0.23884034
   0.44444450  0.55555561  0.07982145
   0.44461670  0.55536580  0.23565422
   0.44444451  0.88888894  0.07982145
   0.44404647  0.88346436  0.23921953
   0.77777779  0.22222222  0.07982145
   0.77528395  0.22421714  0.23858843
   0.77777781  0.55555561  0.07982145
   0.77791262  0.55520686  0.23656628
   0.77777784  0.88888894  0.07982145
   0.78077597  0.89025163  0.23947118
   0.99196230  0.98203457  0.39820336
   0.27125765  0.93811898  0.41432850
   0.88367888  0.21379658  0.41644972
   0.62214243  0.26124593  0.40337814
   0.77460421  0.56400100  0.34701614
   0.34941108  0.69455278  0.39820546
   0.96155664  0.05334809  0.41278056
   0.08556515  0.98643845  0.41217554
   0.37554135  0.03915776  0.41149681
   0.23332881  0.91098392  0.38514244
   0.98197165  0.31926137  0.41993299
   0.87503417  0.20080536  0.38559904
   0.61556497  0.33831490  0.42189853
   0.71107935  0.24436040  0.41383544
   0.79283702  0.59614632  0.37599250
   0.44472413  0.54603627  0.33863821
   0.32564218  0.77794113  0.40902493
   0.46166885  0.73075545  0.40566195
 
 position of ions in cartesian coordinates  (Angst):
   0.00000000  0.00000000  0.00000000
   4.77583445  8.27136687  5.20569297
  -0.01195760  0.05456660 10.82774009
  -1.59262550  2.75850844  0.00000000
  -1.59313284  2.76816198  5.19787870
   7.94921055  2.73628784 10.24519891
  -3.18525100  5.51701689  0.00000000
  -3.17487514  5.52587169  5.17342216
  -3.16934958  5.51527657 10.33639752
   3.18525100  0.00000000  0.00000000
   3.18898327  0.00294105  5.18445855
   3.14958080  0.00287833 10.19694779
   1.59262550  2.75850844  0.00000000
   1.59737800  2.75040762  5.17019742
   1.53818591  2.69359276 10.29516997
  -0.00000001  5.51701689  0.00000000
  -0.00780324  5.52427558  5.19111139
  -0.09876609  5.50878943 10.84998697
   6.37050200  0.00000000  0.00000000
   1.59076580  8.27058995  5.19560251
   6.38389310  0.01173551 10.32917515
   4.77787638  2.75850844  0.00000000
   4.77302490  2.75827908  5.20513221
   4.74809318  2.60749924 10.94620237
   3.18525100  5.51701689  0.00000000
   3.18853446  5.53027242  5.15930770
   3.12771000  5.55746198 10.29383079
   0.00000017  1.83900547  2.60418248
   0.00007966  1.82269779  7.76195000
  -1.59262550  4.59751415  2.60418248
  -1.56776969  4.61639212  7.80540210
  -3.18525076  7.35602236  2.60418248
  -3.22003721  7.35521720  7.77127282
   3.18525147  1.83900547  2.60418248
   3.21004915  1.89550473  7.79218901
   1.59262574  4.59751415  2.60418248
   1.59517816  4.59594332  7.68824156
   0.00000039  7.35602236  2.60418248
   0.02211483  7.31113107  7.80455983
   6.37050199  1.83900547  2.60418248
   6.33713996  1.85551446  7.78397036
   4.77787638  4.59751415  2.60418248
   4.78083097  4.59462802  7.71799748
   3.18525124  7.35602236  2.60418248
   3.20738986  7.36729928  7.81277023
   4.78690671  8.12685125 12.99142245
  -1.89014550  7.76342672 13.51750691
   7.42272323  1.76927886 13.58671178
   4.69683845  2.16194715 13.16025029
   4.70719928  4.66740420 11.32143450
   0.02039851  5.74778866 12.99149108
   8.93350689  0.44148346 13.46700515
  -3.89544151  8.16329569 13.44726640
   3.40148938  0.32405100 13.42512278
  -2.12293613  7.53886986 12.56530870
   7.85808691  2.64205537 13.70035380
   7.40218697  1.66176971 12.58020558
   4.26575987  2.79973330 13.76447987
   5.62737468  2.02221054 13.50142061
   4.72784114  4.93342352 12.26679130
   1.64078003  4.51873664 11.04810374
  -0.60515039  6.43787097 13.34447719
   0.92013414  6.04738474 13.23475973
 


--------------------------------------------------------------------------------------------------------


 k-point  1 :   0.0000 0.0000 0.0000  plane waves:   69403
 k-point  2 :   0.3333-0.0000 0.0000  plane waves:   69509
 k-point  3 :   0.0000 0.3333 0.0000  plane waves:   69509
 k-point  4 :   0.3333 0.3333 0.0000  plane waves:   69474
 k-point  5 :  -0.3333 0.3333 0.0000  plane waves:   69509

 maximum and minimum number of plane-waves per node :      2924     2870

 maximum number of plane-waves:     69509
 maximum index in each direction: 
   IXMAX=   18   IYMAX=   17   IZMAX=   60
   IXMIN=  -18   IYMIN=  -18   IZMIN=  -60


 real space projection operators:
  total allocation   :      22573.16 KBytes
  max/ min on nodes  :       1299.39        546.62


 parallel 3D FFT for wavefunctions:
    minimum data exchange during FFTs selected (reduces bandwidth)
 parallel 3D FFT for charge:
    minimum data exchange during FFTs selected (reduces bandwidth)


 total amount of memory used by VASP MPI-rank0    62193. kBytes
=======================================================================

   base      :      30000. kBytes
   nonlr-proj:       6290. kBytes
   fftplans  :       6459. kBytes
   grid      :      11407. kBytes
   one-center:         24. kBytes
   wavefun   :       8013. kBytes
 
     INWAV:  cpu time    0.0001: real time    0.0006
 Broyden mixing: mesh for mixing (old mesh)
   NGX = 35   NGY = 35   NGZ =121
  (NGX  =144   NGY  =144   NGZ  =500)
  gives a total of 148225 points

 initial charge density was supplied:
 charge density of overlapping atoms calculated
 number of electron     138.0000000 magnetization 
 keeping initial charge density in first step


--------------------------------------------------------------------------------------------------------


 Maximum index for non-local projection operator          299
 Maximum index for augmentation-charges          837 (set IRDMAX)


--------------------------------------------------------------------------------------------------------


 First call to EWALD:  gamma=   0.129
 Maximum number of real-space cells 4x 4x 1
 Maximum number of reciprocal cells 2x 2x 6

    FEWALD:  cpu time    0.0071: real time    0.0071


--------------------------------------- Iteration      1(   1)  ---------------------------------------


vdW kernel read from vdw_kernel.bindat
  0.0000  0.2424  0.5071  0.7962  1.1119  1.4567  1.8333  2.2446  2.6937  3.1842
  3.7199  4.3049  4.9438  5.6415  6.4036  7.2358  8.1446  9.1372 10.2212 11.4050
 12.6979 14.1099 15.6519 17.3360 19.1751 21.1837 23.3773 25.7729 28.3892 31.2465
 34.3669 37.7748 41.4965 45.5611 50.0000
 
    POTLOK:  cpu time   10.2187: real time   10.3556
    SETDIJ:  cpu time    0.1373: real time    0.1373
    EDDIAG:  cpu time    2.7471: real time    2.7478
  RMM-DIIS:  cpu time    2.2057: real time    2.2060
    ORTHCH:  cpu time    1.0614: real time    1.0615
 BZINTS: Fermi energy:  9.478811;138.000000 electrons
         Band energy: 209.175164;  BLOECHL correction: -0.045318
       DOS:  cpu time    0.0086: real time    0.0086
    --------------------------------------------
      LOOP:  cpu time   16.3788: real time   16.5169

 eigenvalue-minimisations  :   510
 total energy-change (2. order) : 0.1241519E+04  (-0.2785790E+04)
 number of electron     138.0000000 magnetization 
 augmentation part      138.0000000 magnetization 

 DIPCOR: dipole corrections for dipol
 direction  3 min pos   366,
 dipolmoment           0.000000      0.000000     -0.000305 electrons x Angstroem
 Tr[quadrupol]     -1832.826535

 energy correction for charged system         0.000000 eV
 dipol+quadrupol energy correction           -0.000000 eV
 added-field ion interaction          0.001176 eV  (added to PSCEN)


 Free energy of the ion-electron system (eV)
  ---------------------------------------------------
  alpha Z        PSCENC =        63.16223933
  Ewald energy   TEWEN  =     12996.97550869
  -Hartree energ DENC   =    -16220.91838778
  -exchange      EXHF   =         0.00000000
  -V(xc)+E(xc)   XCENC  =     -2051.00923331
  PAW double counting   =      5135.15659847    -2719.01140655
  entropy T*S    EENTRO =         0.00000000
  eigenvalues    EBANDS =       209.17516370
  atomic energy  EATOM  =      3827.98814510
  Solvation  Ediel_sol  =         0.00000000
  ---------------------------------------------------
  free energy    TOTEN  =      1241.51862766 eV

  energy without entropy =     1241.51862766  energy(sigma->0) =     1241.51862766


--------------------------------------------------------------------------------------------------------




--------------------------------------- Iteration      1(   2)  ---------------------------------------


    EDDIAG:  cpu time    2.7863: real time    2.8082
  RMM-DIIS:  cpu time    2.2052: real time    2.2055
    ORTHCH:  cpu time    1.0657: real time    1.0659
 BZINTS: Fermi energy:  2.206249;138.000000 electrons
         Band energy:-486.639554;  BLOECHL correction: -0.553096
       DOS:  cpu time    0.0085: real time    0.0085
    --------------------------------------------
      LOOP:  cpu time    6.0658: real time    6.0880

 eigenvalue-minimisations  :   510
 total energy-change (2. order) :-0.6958147E+03  (-0.7545846E+03)
 number of electron     138.0000000 magnetization 
 augmentation part      138.0000000 magnetization 

 DIPCOR: dipole corrections for dipol
 direction  3 min pos   366,
 dipolmoment           0.000000      0.000000     -0.000305 electrons x Angstroem
 Tr[quadrupol]     -1832.826535

 energy correction for charged system         0.000000 eV
 dipol+quadrupol energy correction           -0.000000 eV
 added-field ion interaction          0.001176 eV  (added to PSCEN)


 Free energy of the ion-electron system (eV)
  ---------------------------------------------------
  alpha Z        PSCENC =        63.16223933
  Ewald energy   TEWEN  =     12996.97550869
  -Hartree energ DENC   =    -16220.91838778
  -exchange      EXHF   =         0.00000000
  -V(xc)+E(xc)   XCENC  =     -2051.00923331
  PAW double counting   =      5135.15659847    -2719.01140655
  entropy T*S    EENTRO =         0.00000000
  eigenvalues    EBANDS =      -486.63955412
  atomic energy  EATOM  =      3827.98814510
  Solvation  Ediel_sol  =         0.00000000
  ---------------------------------------------------
  free energy    TOTEN  =       545.70390984 eV

  energy without entropy =      545.70390984  energy(sigma->0) =      545.70390984


--------------------------------------------------------------------------------------------------------




--------------------------------------- Iteration      1(   3)  ---------------------------------------


    EDDIAG:  cpu time    2.7438: real time    2.7680
  RMM-DIIS:  cpu time    2.2065: real time    2.2068
    ORTHCH:  cpu time    1.0691: real time    1.0692
 BZINTS: Fermi energy:  0.293285;138.000000 electrons
         Band energy:-721.588337;  BLOECHL correction: -0.504480
       DOS:  cpu time    0.0053: real time    0.0053
    --------------------------------------------
      LOOP:  cpu time    6.0247: real time    6.0493

 eigenvalue-minimisations  :   510
 total energy-change (2. order) :-0.2349488E+03  (-0.2988385E+03)
 number of electron     138.0000000 magnetization 
 augmentation part      138.0000000 magnetization 

 DIPCOR: dipole corrections for dipol
 direction  3 min pos   366,
 dipolmoment           0.000000      0.000000     -0.000305 electrons x Angstroem
 Tr[quadrupol]     -1832.826535

 energy correction for charged system         0.000000 eV
 dipol+quadrupol energy correction           -0.000000 eV
 added-field ion interaction          0.001176 eV  (added to PSCEN)


 Free energy of the ion-electron system (eV)
  ---------------------------------------------------
  alpha Z        PSCENC =        63.16223933
  Ewald energy   TEWEN  =     12996.97550869
  -Hartree energ DENC   =    -16220.91838778
  -exchange      EXHF   =         0.00000000
  -V(xc)+E(xc)   XCENC  =     -2051.00923331
  PAW double counting   =      5135.15659847    -2719.01140655
  entropy T*S    EENTRO =         0.00000000
  eigenvalues    EBANDS =      -721.58833730
  atomic energy  EATOM  =      3827.98814510
  Solvation  Ediel_sol  =         0.00000000
  ---------------------------------------------------
  free energy    TOTEN  =       310.75512666 eV

  energy without entropy =      310.75512666  energy(sigma->0) =      310.75512666


--------------------------------------------------------------------------------------------------------




--------------------------------------- Iteration      1(   4)  ---------------------------------------


    EDDIAG:  cpu time    2.7481: real time    2.7722
  RMM-DIIS:  cpu time    2.2060: real time    2.2063
    ORTHCH:  cpu time    1.0665: real time    1.0666
 BZINTS: Fermi energy: -0.744807;138.000000 electrons
         Band energy:-895.909536;  BLOECHL correction: -0.122236
       DOS:  cpu time    0.0066: real time    0.0066
    --------------------------------------------
      LOOP:  cpu time    6.0271: real time    6.0516

 eigenvalue-minimisations  :   510
 total energy-change (2. order) :-0.1743212E+03  (-0.1501813E+03)
 number of electron     138.0000000 magnetization 
 augmentation part      138.0000000 magnetization 

 DIPCOR: dipole corrections for dipol
 direction  3 min pos   366,
 dipolmoment           0.000000      0.000000     -0.000305 electrons x Angstroem
 Tr[quadrupol]     -1832.826535

 energy correction for charged system         0.000000 eV
 dipol+quadrupol energy correction           -0.000000 eV
 added-field ion interaction          0.001176 eV  (added to PSCEN)


 Free energy of the ion-electron system (eV)
  ---------------------------------------------------
  alpha Z        PSCENC =        63.16223933
  Ewald energy   TEWEN  =     12996.97550869
  -Hartree energ DENC   =    -16220.91838778
  -exchange      EXHF   =         0.00000000
  -V(xc)+E(xc)   XCENC  =     -2051.00923331
  PAW double counting   =      5135.15659847    -2719.01140655
  entropy T*S    EENTRO =         0.00000000
  eigenvalues    EBANDS =      -895.90953583
  atomic energy  EATOM  =      3827.98814510
  Solvation  Ediel_sol  =         0.00000000
  ---------------------------------------------------
  free energy    TOTEN  =       136.43392813 eV

  energy without entropy =      136.43392813  energy(sigma->0) =      136.43392813


--------------------------------------------------------------------------------------------------------




--------------------------------------- Iteration      1(   5)  ---------------------------------------


    EDDIAG:  cpu time    2.7498: real time    2.7701
  RMM-DIIS:  cpu time    2.2005: real time    2.2008
    ORTHCH:  cpu time    1.0678: real time    1.0680
 BZINTS: Fermi energy: -1.190977;138.000000 electrons
         Band energy:***********;  BLOECHL correction: -0.152649
       DOS:  cpu time    0.0047: real time    0.0047
    --------------------------------------------
      LOOP:  cpu time    6.0228: real time    6.0435

 eigenvalue-minimisations  :   510
 total energy-change (2. order) :-0.1181803E+03  (-0.9454509E+02)
 number of electron     138.0000000 magnetization 
 augmentation part      138.0000000 magnetization 

 DIPCOR: dipole corrections for dipol
 direction  3 min pos   366,
 dipolmoment           0.000000      0.000000     -0.000305 electrons x Angstroem
 Tr[quadrupol]     -1832.826535

 energy correction for charged system         0.000000 eV
 dipol+quadrupol energy correction           -0.000000 eV
 added-field ion interaction          0.001176 eV  (added to PSCEN)


 Free energy of the ion-electron system (eV)
  ---------------------------------------------------
  alpha Z        PSCENC =        63.16223933
  Ewald energy   TEWEN  =     12996.97550869
  -Hartree energ DENC   =    -16220.91838778
  -exchange      EXHF   =         0.00000000
  -V(xc)+E(xc)   XCENC  =     -2051.00923331
  PAW double counting   =      5135.15659847    -2719.01140655
  entropy T*S    EENTRO =         0.00000000
  eigenvalues    EBANDS =     -1014.08981244
  atomic energy  EATOM  =      3827.98814510
  Solvation  Ediel_sol  =         0.00000000
  ---------------------------------------------------
  free energy    TOTEN  =        18.25365152 eV

  energy without entropy =       18.25365152  energy(sigma->0) =       18.25365152


--------------------------------------------------------------------------------------------------------




--------------------------------------- Iteration      1(   6)  ---------------------------------------


    EDDIAG:  cpu time    2.7539: real time    2.7780
  RMM-DIIS:  cpu time    2.2236: real time    2.2239
    ORTHCH:  cpu time    1.0651: real time    1.0652
 BZINTS: Fermi energy: -1.344870;138.000000 electrons
         Band energy:***********;  BLOECHL correction: -0.068277
       DOS:  cpu time    0.0061: real time    0.0061
    --------------------------------------------
      LOOP:  cpu time    6.0487: real time    6.0733

 eigenvalue-minimisations  :   510
 total energy-change (2. order) :-0.6288876E+02  (-0.4808390E+02)
 number of electron     138.0000000 magnetization 
 augmentation part      138.0000000 magnetization 

 DIPCOR: dipole corrections for dipol
 direction  3 min pos   366,
 dipolmoment           0.000000      0.000000     -0.000305 electrons x Angstroem
 Tr[quadrupol]     -1832.826535

 energy correction for charged system         0.000000 eV
 dipol+quadrupol energy correction           -0.000000 eV
 added-field ion interaction          0.001176 eV  (added to PSCEN)


 Free energy of the ion-electron system (eV)
  ---------------------------------------------------
  alpha Z        PSCENC =        63.16223933
  Ewald energy   TEWEN  =     12996.97550869
  -Hartree energ DENC   =    -16220.91838778
  -exchange      EXHF   =         0.00000000
  -V(xc)+E(xc)   XCENC  =     -2051.00923331
  PAW double counting   =      5135.15659847    -2719.01140655
  entropy T*S    EENTRO =         0.00000000
  eigenvalues    EBANDS =     -1076.97856988
  atomic energy  EATOM  =      3827.98814510
  Solvation  Ediel_sol  =         0.00000000
  ---------------------------------------------------
  free energy    TOTEN  =       -44.63510592 eV

  energy without entropy =      -44.63510592  energy(sigma->0) =      -44.63510592


--------------------------------------------------------------------------------------------------------




--------------------------------------- Iteration      1(   7)  ---------------------------------------


    EDDIAG:  cpu time    2.7541: real time    2.7777
  RMM-DIIS:  cpu time    2.2067: real time    2.2070
    ORTHCH:  cpu time    1.0670: real time    1.0671
 BZINTS: Fermi energy: -1.403222;138.000000 electrons
         Band energy:***********;  BLOECHL correction: -0.071608
       DOS:  cpu time    0.0056: real time    0.0056
    --------------------------------------------
      LOOP:  cpu time    6.0334: real time    6.0574

 eigenvalue-minimisations  :   510
 total energy-change (2. order) :-0.2623865E+02  (-0.1980071E+02)
 number of electron     138.0000000 magnetization 
 augmentation part      138.0000000 magnetization 

 DIPCOR: dipole corrections for dipol
 direction  3 min pos   366,
 dipolmoment           0.000000      0.000000     -0.000305 electrons x Angstroem
 Tr[quadrupol]     -1832.826535

 energy correction for charged system         0.000000 eV
 dipol+quadrupol energy correction           -0.000000 eV
 added-field ion interaction          0.001176 eV  (added to PSCEN)


 Free energy of the ion-electron system (eV)
  ---------------------------------------------------
  alpha Z        PSCENC =        63.16223933
  Ewald energy   TEWEN  =     12996.97550869
  -Hartree energ DENC   =    -16220.91838778
  -exchange      EXHF   =         0.00000000
  -V(xc)+E(xc)   XCENC  =     -2051.00923331
  PAW double counting   =      5135.15659847    -2719.01140655
  entropy T*S    EENTRO =         0.00000000
  eigenvalues    EBANDS =     -1103.21721876
  atomic energy  EATOM  =      3827.98814510
  Solvation  Ediel_sol  =         0.00000000
  ---------------------------------------------------
  free energy    TOTEN  =       -70.87375480 eV

  energy without entropy =      -70.87375480  energy(sigma->0) =      -70.87375480


--------------------------------------------------------------------------------------------------------




--------------------------------------- Iteration      1(   8)  ---------------------------------------


    EDDIAG:  cpu time    2.7527: real time    2.7762
  RMM-DIIS:  cpu time    2.2132: real time    2.2135
    ORTHCH:  cpu time    1.0670: real time    1.0671
 BZINTS: Fermi energy: -1.440808;138.000000 electrons
         Band energy:***********;  BLOECHL correction: -0.076683
       DOS:  cpu time    0.0068: real time    0.0068
    --------------------------------------------
      LOOP:  cpu time    6.0397: real time    6.0636

 eigenvalue-minimisations  :   510
 total energy-change (2. order) :-0.7458886E+01  (-0.5977877E+01)
 number of electron     138.0000000 magnetization 
 augmentation part      138.0000000 magnetization 

 DIPCOR: dipole corrections for dipol
 direction  3 min pos   366,
 dipolmoment           0.000000      0.000000     -0.000305 electrons x Angstroem
 Tr[quadrupol]     -1832.826535

 energy correction for charged system         0.000000 eV
 dipol+quadrupol energy correction           -0.000000 eV
 added-field ion interaction          0.001176 eV  (added to PSCEN)


 Free energy of the ion-electron system (eV)
  ---------------------------------------------------
  alpha Z        PSCENC =        63.16223933
  Ewald energy   TEWEN  =     12996.97550869
  -Hartree energ DENC   =    -16220.91838778
  -exchange      EXHF   =         0.00000000
  -V(xc)+E(xc)   XCENC  =     -2051.00923331
  PAW double counting   =      5135.15659847    -2719.01140655
  entropy T*S    EENTRO =         0.00000000
  eigenvalues    EBANDS =     -1110.67610461
  atomic energy  EATOM  =      3827.98814510
  Solvation  Ediel_sol  =         0.00000000
  ---------------------------------------------------
  free energy    TOTEN  =       -78.33264065 eV

  energy without entropy =      -78.33264065  energy(sigma->0) =      -78.33264065


--------------------------------------------------------------------------------------------------------




--------------------------------------- Iteration      1(   9)  ---------------------------------------


    EDDIAG:  cpu time    2.7448: real time    2.7678
  RMM-DIIS:  cpu time    5.3459: real time    5.3466
    ORTHCH:  cpu time    1.0637: real time    1.0639
 BZINTS: Fermi energy: -1.475261;138.000000 electrons
         Band energy:***********;  BLOECHL correction: -0.047259
       DOS:  cpu time    0.0058: real time    0.0058
    --------------------------------------------
      LOOP:  cpu time    9.1603: real time    9.1841

 eigenvalue-minimisations  :  1511
 total energy-change (2. order) :-0.2359388E+01  (-0.2258868E+01)
 number of electron     138.0000000 magnetization 
 augmentation part      138.0000000 magnetization 

 DIPCOR: dipole corrections for dipol
 direction  3 min pos   366,
 dipolmoment           0.000000      0.000000     -0.000305 electrons x Angstroem
 Tr[quadrupol]     -1832.826535

 energy correction for charged system         0.000000 eV
 dipol+quadrupol energy correction           -0.000000 eV
 added-field ion interaction          0.001176 eV  (added to PSCEN)


 Free energy of the ion-electron system (eV)
  ---------------------------------------------------
  alpha Z        PSCENC =        63.16223933
  Ewald energy   TEWEN  =     12996.97550869
  -Hartree energ DENC   =    -16220.91838778
  -exchange      EXHF   =         0.00000000
  -V(xc)+E(xc)   XCENC  =     -2051.00923331
  PAW double counting   =      5135.15659847    -2719.01140655
  entropy T*S    EENTRO =         0.00000000
  eigenvalues    EBANDS =     -1113.03549226
  atomic energy  EATOM  =      3827.98814510
  Solvation  Ediel_sol  =         0.00000000
  ---------------------------------------------------
  free energy    TOTEN  =       -80.69202830 eV

  energy without entropy =      -80.69202830  energy(sigma->0) =      -80.69202830


--------------------------------------------------------------------------------------------------------




--------------------------------------- Iteration      1(  10)  ---------------------------------------


    EDDIAG:  cpu time    2.7413: real time    2.7673
  RMM-DIIS:  cpu time    6.0454: real time    6.0462
    ORTHCH:  cpu time    1.0798: real time    1.0799
 BZINTS: Fermi energy: -1.477723;138.000000 electrons
         Band energy:***********;  BLOECHL correction: -0.058857
       DOS:  cpu time    0.0038: real time    0.0038
    --------------------------------------------
      LOOP:  cpu time    9.8702: real time    9.8972

 eigenvalue-minimisations  :  1763
 total energy-change (2. order) :-0.2888892E+00  (-0.3020059E+00)
 number of electron     138.0000000 magnetization 
 augmentation part      138.0000000 magnetization 

 DIPCOR: dipole corrections for dipol
 direction  3 min pos   366,
 dipolmoment           0.000000      0.000000     -0.000305 electrons x Angstroem
 Tr[quadrupol]     -1832.826535

 energy correction for charged system         0.000000 eV
 dipol+quadrupol energy correction           -0.000000 eV
 added-field ion interaction          0.001176 eV  (added to PSCEN)


 Free energy of the ion-electron system (eV)
  ---------------------------------------------------
  alpha Z        PSCENC =        63.16223933
  Ewald energy   TEWEN  =     12996.97550869
  -Hartree energ DENC   =    -16220.91838778
  -exchange      EXHF   =         0.00000000
  -V(xc)+E(xc)   XCENC  =     -2051.00923331
  PAW double counting   =      5135.15659847    -2719.01140655
  entropy T*S    EENTRO =         0.00000000
  eigenvalues    EBANDS =     -1113.32438142
  atomic energy  EATOM  =      3827.98814510
  Solvation  Ediel_sol  =         0.00000000
  ---------------------------------------------------
  free energy    TOTEN  =       -80.98091746 eV

  energy without entropy =      -80.98091746  energy(sigma->0) =      -80.98091746


--------------------------------------------------------------------------------------------------------




--------------------------------------- Iteration      1(  11)  ---------------------------------------


    EDDIAG:  cpu time    2.7517: real time    2.7758
  RMM-DIIS:  cpu time    5.9233: real time    5.9241
    ORTHCH:  cpu time    1.0683: real time    1.0684
 BZINTS: Fermi energy: -1.478070;138.000000 electrons
         Band energy:***********;  BLOECHL correction: -0.058934
       DOS:  cpu time    0.0084: real time    0.0084
    --------------------------------------------
      LOOP:  cpu time    9.7517: real time    9.7767

 eigenvalue-minimisations  :  1710
 total energy-change (2. order) :-0.1964786E-03  (-0.1662822E-01)
 number of electron     138.0000000 magnetization 
 augmentation part      138.0000000 magnetization 

 DIPCOR: dipole corrections for dipol
 direction  3 min pos   366,
 dipolmoment           0.000000      0.000000     -0.000305 electrons x Angstroem
 Tr[quadrupol]     -1832.826535

 energy correction for charged system         0.000000 eV
 dipol+quadrupol energy correction           -0.000000 eV
 added-field ion interaction          0.001176 eV  (added to PSCEN)


 Free energy of the ion-electron system (eV)
  ---------------------------------------------------
  alpha Z        PSCENC =        63.16223933
  Ewald energy   TEWEN  =     12996.97550869
  -Hartree energ DENC   =    -16220.91838778
  -exchange      EXHF   =         0.00000000
  -V(xc)+E(xc)   XCENC  =     -2051.00923331
  PAW double counting   =      5135.15659847    -2719.01140655
  entropy T*S    EENTRO =         0.00000000
  eigenvalues    EBANDS =     -1113.32457790
  atomic energy  EATOM  =      3827.98814510
  Solvation  Ediel_sol  =         0.00000000
  ---------------------------------------------------
  free energy    TOTEN  =       -80.98111394 eV

  energy without entropy =      -80.98111394  energy(sigma->0) =      -80.98111394


--------------------------------------------------------------------------------------------------------




--------------------------------------- Iteration      1(  12)  ---------------------------------------


    EDDIAG:  cpu time    2.7550: real time    2.7750
  RMM-DIIS:  cpu time    6.1203: real time    6.1211
    ORTHCH:  cpu time    1.0814: real time    1.0815
 BZINTS: Fermi energy: -1.478116;138.000000 electrons
         Band energy:***********;  BLOECHL correction: -0.058946
       DOS:  cpu time    0.0043: real time    0.0043
    CHARGE:  cpu time    0.5061: real time    0.5062
    MIXING:  cpu time    0.0037: real time    0.0037
    --------------------------------------------
      LOOP:  cpu time   10.4708: real time   10.4918

 eigenvalue-minimisations  :  1779
 total energy-change (2. order) :-0.2605568E-02  (-0.3347381E-02)
 number of electron     138.0000001 magnetization 
 augmentation part        5.2471763 magnetization 

 DIPCOR: dipole corrections for dipol
 direction  3 min pos   366,
 dipolmoment           0.000000      0.000000     -0.000305 electrons x Angstroem
 Tr[quadrupol]     -1832.826535

 energy correction for charged system         0.000000 eV
 dipol+quadrupol energy correction           -0.000000 eV
 added-field ion interaction          0.001176 eV  (added to PSCEN)


 Broyden mixing:
  rms(total) = 0.20002E+01    rms(broyden)= 0.19990E+01
  rms(prec ) = 0.20958E+01
  weight for this iteration     100.00

 Free energy of the ion-electron system (eV)
  ---------------------------------------------------
  alpha Z        PSCENC =        63.16223933
  Ewald energy   TEWEN  =     12996.97550869
  -Hartree energ DENC   =    -16220.91838778
  -exchange      EXHF   =         0.00000000
  -V(xc)+E(xc)   XCENC  =     -2051.00923331
  PAW double counting   =      5135.15659847    -2719.01140655
  entropy T*S    EENTRO =         0.00000000
  eigenvalues    EBANDS =     -1113.32718347
  atomic energy  EATOM  =      3827.98814510
  Solvation  Ediel_sol  =         0.00000000
  ---------------------------------------------------
  free energy    TOTEN  =       -80.98371951 eV

  energy without entropy =      -80.98371951  energy(sigma->0) =      -80.98371951


--------------------------------------------------------------------------------------------------------




--------------------------------------- Iteration      1(  13)  ---------------------------------------


    POTLOK:  cpu time    9.7702: real time    9.7950
    SETDIJ:  cpu time    0.1497: real time    0.1497
    EDDIAG:  cpu time    2.7410: real time    2.7415
  RMM-DIIS:  cpu time    5.0962: real time    5.0969
    ORTHCH:  cpu time    1.0739: real time    1.0741
 BZINTS: Fermi energy: -0.967649;138.000000 electrons
         Band energy:-933.274811;  BLOECHL correction: -0.043736
       DOS:  cpu time    0.0054: real time    0.0054
    CHARGE:  cpu time    0.5018: real time    0.5018
    MIXING:  cpu time    0.0047: real time    0.0047
    --------------------------------------------
      LOOP:  cpu time   19.3429: real time   19.3691

 eigenvalue-minimisations  :  1450
 total energy-change (2. order) : 0.1063664E+02  (-0.5992077E+01)
 number of electron     138.0000001 magnetization 
 augmentation part        4.4755633 magnetization 

 DIPCOR: dipole corrections for dipol
 direction  3 min pos   366,
 dipolmoment           0.000000      0.000000      0.144067 electrons x Angstroem
 Tr[quadrupol]     -1845.094643

 energy correction for charged system         0.000000 eV
 dipol+quadrupol energy correction           -0.000728 eV
 added-field ion interaction         -0.555714 eV  (added to PSCEN)


 Broyden mixing:
  rms(total) = 0.77409E+00    rms(broyden)= 0.77356E+00
  rms(prec ) = 0.85299E+00
  weight for this iteration     100.00

 eigenvalues of (default mixing * dielectric matrix)
  average eigenvalue GAMMA=   0.9526
  0.9526

 Free energy of the ion-electron system (eV)
  ---------------------------------------------------
  alpha Z        PSCENC =        62.60462143
  Ewald energy   TEWEN  =     12996.97550869
  -Hartree energ DENC   =    -16397.08110559
  -exchange      EXHF   =         0.00000000
  -V(xc)+E(xc)   XCENC  =     -2041.17555143
  PAW double counting   =      5554.48197839    -3140.86586514
  entropy T*S    EENTRO =         0.00000000
  eigenvalues    EBANDS =      -933.27481058
  atomic energy  EATOM  =      3827.98814510
  Solvation  Ediel_sol  =         0.00000000
  ---------------------------------------------------
  free energy    TOTEN  =       -70.34707912 eV

  energy without entropy =      -70.34707912  energy(sigma->0) =      -70.34707912


--------------------------------------------------------------------------------------------------------




--------------------------------------- Iteration      1(  14)  ---------------------------------------


    POTLOK:  cpu time    9.7795: real time    9.8025
    SETDIJ:  cpu time    0.1409: real time    0.1409
    EDDIAG:  cpu time    2.7638: real time    2.7644
  RMM-DIIS:  cpu time    5.7044: real time    5.7051
    ORTHCH:  cpu time    1.0689: real time    1.0691
 BZINTS: Fermi energy: -0.723479;138.000000 electrons
         Band energy:-957.571663;  BLOECHL correction: -0.110799
       DOS:  cpu time    0.0064: real time    0.0064
    CHARGE:  cpu time    0.5057: real time    0.5058
    MIXING:  cpu time    0.0042: real time    0.0042
    --------------------------------------------
      LOOP:  cpu time   19.9738: real time   19.9984

 eigenvalue-minimisations  :  1629
 total energy-change (2. order) :-0.7250346E+01  (-0.3929377E+00)
 number of electron     138.0000001 magnetization 
 augmentation part        4.4124400 magnetization 

 DIPCOR: dipole corrections for dipol
 direction  3 min pos   378,
 dipolmoment           0.000000      0.000000     -1.354934 electrons x Angstroem
 Tr[quadrupol]     -1836.698270

 energy correction for charged system         0.000000 eV
 dipol+quadrupol energy correction           -0.064381 eV
 added-field ion interaction         -5.042186 eV  (added to PSCEN)


 Broyden mixing:
  rms(total) = 0.69752E+00    rms(broyden)= 0.69748E+00
  rms(prec ) = 0.17707E+01
  weight for this iteration     100.00

 eigenvalues of (default mixing * dielectric matrix)
  average eigenvalue GAMMA=   1.0183
  1.0183  1.0183

 Free energy of the ion-electron system (eV)
  ---------------------------------------------------
  alpha Z        PSCENC =        58.05449608
  Ewald energy   TEWEN  =     12996.97550869
  -Hartree energ DENC   =    -16377.59669143
  -exchange      EXHF   =         0.00000000
  -V(xc)+E(xc)   XCENC  =     -2039.05088937
  PAW double counting   =      5723.13298494    -3309.52931622
  entropy T*S    EENTRO =         0.00000000
  eigenvalues    EBANDS =      -957.57166289
  atomic energy  EATOM  =      3827.98814510
  Solvation  Ediel_sol  =         0.00000000
  ---------------------------------------------------
  free energy    TOTEN  =       -77.59742508 eV

  energy without entropy =      -77.59742508  energy(sigma->0) =      -77.59742508


--------------------------------------------------------------------------------------------------------




--------------------------------------- Iteration      1(  15)  ---------------------------------------


    POTLOK:  cpu time    9.7634: real time    9.7888
    SETDIJ:  cpu time    0.1362: real time    0.1362
    EDDIAG:  cpu time    2.7398: real time    2.7404
  RMM-DIIS:  cpu time    5.0233: real time    5.0239
    ORTHCH:  cpu time    1.0692: real time    1.0694
 BZINTS: Fermi energy: -1.019790;138.000000 electrons
         Band energy:-914.499331;  BLOECHL correction: -0.048267
       DOS:  cpu time    0.0077: real time    0.0077
    CHARGE:  cpu time    0.5075: real time    0.5076
    MIXING:  cpu time    0.0045: real time    0.0045
    --------------------------------------------
      LOOP:  cpu time   19.2516: real time   19.2784

 eigenvalue-minimisations  :  1434
 total energy-change (2. order) : 0.7223838E+01  (-0.1438948E+00)
 number of electron     138.0000001 magnetization 
 augmentation part        4.3692113 magnetization 

 DIPCOR: dipole corrections for dipol
 direction  3 min pos   386,
 dipolmoment           0.000000      0.000000      0.074093 electrons x Angstroem
 Tr[quadrupol]     -1845.576476

 energy correction for charged system         0.000000 eV
 dipol+quadrupol energy correction           -0.000193 eV
 added-field ion interaction          0.650074 eV  (added to PSCEN)


 Broyden mixing:
  rms(total) = 0.51236E+00    rms(broyden)= 0.51234E+00
  rms(prec ) = 0.72946E+00
  weight for this iteration     100.00

 eigenvalues of (default mixing * dielectric matrix)
  average eigenvalue GAMMA=   1.0867
  1.9563  1.1582  0.1455

 Free energy of the ion-electron system (eV)
  ---------------------------------------------------
  alpha Z        PSCENC =        63.81094443
  Ewald energy   TEWEN  =     12996.97550869
  -Hartree energ DENC   =    -16419.56591500
  -exchange      EXHF   =         0.00000000
  -V(xc)+E(xc)   XCENC  =     -2038.70535865
  PAW double counting   =      5751.24927307    -3337.62685361
  entropy T*S    EENTRO =         0.00000000
  eigenvalues    EBANDS =      -914.49933116
  atomic energy  EATOM  =      3827.98814510
  Solvation  Ediel_sol  =         0.00000000
  ---------------------------------------------------
  free energy    TOTEN  =       -70.37358713 eV

  energy without entropy =      -70.37358713  energy(sigma->0) =      -70.37358713


--------------------------------------------------------------------------------------------------------




--------------------------------------- Iteration      1(  16)  ---------------------------------------


    POTLOK:  cpu time    9.7568: real time    9.7758
    SETDIJ:  cpu time    0.1360: real time    0.1360
    EDDIAG:  cpu time    2.7424: real time    2.7428
  RMM-DIIS:  cpu time    5.4416: real time    5.4423
    ORTHCH:  cpu time    1.0759: real time    1.0761
 BZINTS: Fermi energy: -0.677093;138.000000 electrons
         Band energy:-897.073530;  BLOECHL correction: -0.058018
       DOS:  cpu time    0.0059: real time    0.0059
    CHARGE:  cpu time    0.5072: real time    0.5073
    MIXING:  cpu time    0.0046: real time    0.0046
    --------------------------------------------
      LOOP:  cpu time   19.6703: real time   19.6907

 eigenvalue-minimisations  :  1550
 total energy-change (2. order) : 0.8041960E+00  (-0.1138609E+00)
 number of electron     138.0000001 magnetization 
 augmentation part        4.4367273 magnetization 

 DIPCOR: dipole corrections for dipol
 direction  3 min pos   390,
 dipolmoment           0.000000      0.000000     -0.299726 electrons x Angstroem
 Tr[quadrupol]     -1848.620028

 energy correction for charged system         0.000000 eV
 dipol+quadrupol energy correction           -0.003150 eV
 added-field ion interaction         -3.386914 eV  (added to PSCEN)


 Broyden mixing:
  rms(total) = 0.20069E+00    rms(broyden)= 0.20067E+00
  rms(prec ) = 0.28676E+00
  weight for this iteration     100.00

 eigenvalues of (default mixing * dielectric matrix)
  average eigenvalue GAMMA=   1.0717
  2.4132  0.9648  0.7592  0.1497

 Free energy of the ion-electron system (eV)
  ---------------------------------------------------
  alpha Z        PSCENC =        59.77099824
  Ewald energy   TEWEN  =     12996.97550869
  -Hartree energ DENC   =    -16433.84864627
  -exchange      EXHF   =         0.00000000
  -V(xc)+E(xc)   XCENC  =     -2037.20812979
  PAW double counting   =      5885.33197608    -3471.50571276
  entropy T*S    EENTRO =         0.00000000
  eigenvalues    EBANDS =      -897.07353044
  atomic energy  EATOM  =      3827.98814510
  Solvation  Ediel_sol  =         0.00000000
  ---------------------------------------------------
  free energy    TOTEN  =       -69.56939115 eV

  energy without entropy =      -69.56939115  energy(sigma->0) =      -69.56939115


--------------------------------------------------------------------------------------------------------




--------------------------------------- Iteration      1(  17)  ---------------------------------------


    POTLOK:  cpu time    9.7723: real time    9.7965
    SETDIJ:  cpu time    0.1354: real time    0.1354
    EDDIAG:  cpu time    2.7400: real time    2.7406
  RMM-DIIS:  cpu time    4.5155: real time    4.5161
    ORTHCH:  cpu time    1.0686: real time    1.0688
 BZINTS: Fermi energy: -0.631146;138.000000 electrons
         Band energy:-888.155114;  BLOECHL correction: -0.068734
       DOS:  cpu time    0.0059: real time    0.0059
    CHARGE:  cpu time    0.5034: real time    0.5035
    MIXING:  cpu time    0.0049: real time    0.0049
    --------------------------------------------
      LOOP:  cpu time   18.7460: real time   18.7715

 eigenvalue-minimisations  :  1275
 total energy-change (2. order) : 0.1593691E+00  (-0.4043186E-01)
 number of electron     138.0000001 magnetization 
 augmentation part        4.4372471 magnetization 

 DIPCOR: dipole corrections for dipol
 direction  3 min pos   388,
 dipolmoment           0.000000      0.000000     -0.511348 electrons x Angstroem
 Tr[quadrupol]     -1847.812652

[...]
  0.014  -0.001   0.000   0.051   0.000  -0.000  -0.003  -0.000   0.000  -0.000   0.011  -0.000   0.000
 -0.000   0.000  -0.001   0.000   0.078   0.000  -0.000  -0.004  -0.003   0.000  -0.000   0.004   0.000
  0.000   0.000  -0.004  -0.000   0.000   0.000   0.000  -0.000  -0.000  -0.000  -0.000  -0.000   0.000
 -0.003   0.000  -0.000  -0.003  -0.000   0.000   0.000   0.000  -0.000   0.000  -0.001   0.000  -0.000
 -0.000  -0.000   0.000  -0.000  -0.004  -0.000   0.000   0.000   0.000  -0.000   0.000  -0.000   0.000
  0.001   0.000   0.000   0.000  -0.003  -0.000  -0.000   0.000   0.004  -0.000   0.000  -0.000   0.000
  0.000   0.000   0.004  -0.000   0.000  -0.000   0.000  -0.000  -0.000   0.002   0.000  -0.000  -0.000
 -0.022   0.000   0.000   0.011  -0.000  -0.000  -0.001   0.000   0.000   0.000   0.004  -0.000   0.000
 -0.000  -0.000   0.000  -0.000   0.004  -0.000   0.000  -0.000  -0.000  -0.000  -0.000   0.002  -0.000
 -0.001  -0.000  -0.003   0.000   0.000   0.000  -0.000   0.000   0.000  -0.000   0.000  -0.000   0.003


------------------------ aborting loop because EDIFF is reached ----------------------------------------


    CHARGE:  cpu time    0.7149: real time    0.7150
    FORLOC:  cpu time    0.0414: real time    0.0414
    FORNL :  cpu time    1.8549: real time    1.8552
    STRESS:  cpu time    5.5709: real time    5.5716
    FORCOR:  cpu time    9.6880: real time    9.6893
    FORHAR:  cpu time    0.3047: real time    0.3048
    MIXING:  cpu time    0.0091: real time    0.0091
    OFIELD:  cpu time    0.0000: real time    0.0000

  FORCE on cell =-STRESS in cart. coord.  units (eV):
  Direction    XX          YY          ZZ          XY          YZ          ZX
  --------------------------------------------------------------------------------------
  Alpha Z    63.16106    63.16106    63.16106
  Ewald   14565.05134 14246.32235-15814.40817  -154.48966   115.42393    60.76781
  Hartree 15430.99168 15236.13763-14200.08630  -108.07466    16.06422    30.30073
  E(xc)    -445.28107  -445.92794  -443.61261    -0.11047     0.66730     0.13679
  Local  -30951.99832-30467.36177 29066.62623   260.31965   -91.23135   -80.90978
  n-local   118.90362   118.59914   107.87985    -0.20327     0.74265     0.48631
  augment    43.98677    45.77180    44.53186     0.08323    -2.73619    -0.74272
  Kinetic  1166.54374  1195.13921  1172.85154     1.97153   -39.06118   -10.08914
  Fock        0.00000     0.00000     0.00000     0.00000     0.00000     0.00000
  -------------------------------------------------------------------------------------
  Total      -8.64116    -8.15851    -3.05654    -0.50366    -0.13062    -0.05000
  in kB      -5.36624    -5.06651    -1.89814    -0.31278    -0.08112    -0.03105
  external pressure =       -4.11 kB  Pullay stress =        0.00 kB


 VOLUME and BASIS-vectors are now :
 -----------------------------------------------------------------------------
  energy-cutoff  :      520.00
  volume of cell :     2579.96
      direct lattice vectors                 reciprocal lattice vectors
     9.555752754  0.000000000  0.000000000     0.104649003  0.060419130  0.000000000
    -4.777876377  8.275524637  0.000000000     0.000000000  0.120838260  0.000000000
     0.000000000  0.000000000 32.625095367     0.000000000  0.000000000  0.030651251

  length of vectors
     9.555752754  9.555752754 32.625095367     0.120838260  0.120838260  0.030651251


 FORCES acting on ions
    electron-ion (+dipol)            ewald-force                    non-local-force                 convergence-correction
 -----------------------------------------------------------------------------------------------
   0.186E-01 -.445E-01 0.122E+03   -.609E-02 0.160E-01 -.121E+03   0.622E-03 0.256E-01 -.798E+00   0.396E-05 -.308E-05 -.414E-03
   0.166E+00 -.410E+00 0.570E+02   -.864E-01 0.418E+00 -.571E+02   -.500E-01 0.829E-02 0.296E-01   0.370E-05 -.491E-05 -.302E-02
   0.144E+01 -.734E+01 -.190E+01   -.145E+01 0.759E+01 0.115E+01   0.307E-02 -.256E+00 0.713E+00   0.115E-05 -.468E-04 -.520E-03
   -.185E-01 0.265E-02 0.122E+03   -.379E-03 -.117E-01 -.121E+03   -.221E-02 -.121E-02 -.859E+00   0.272E-05 0.551E-05 -.412E-03
   -.127E+00 0.186E+00 0.569E+02   0.158E+00 -.217E+00 -.570E+02   -.276E-01 0.173E-01 0.631E-01   0.387E-05 0.149E-04 -.301E-02
   -.715E+01 -.169E+01 -.126E+02   0.722E+01 0.170E+01 0.125E+02   -.915E-01 -.125E-01 0.968E-01   -.185E-04 0.319E-04 -.958E-03
   0.709E-02 0.829E-01 0.122E+03   0.959E-02 -.255E-02 -.121E+03   0.114E-01 -.514E-01 -.816E+00   -.189E-05 0.414E-06 -.414E-03
   -.401E+00 -.329E-01 0.577E+02   0.404E+00 0.644E-01 -.577E+02   -.445E-02 -.310E-02 0.110E-01   0.667E-06 -.524E-05 -.299E-02
   -.242E+02 -.909E+01 -.464E+01   0.247E+02 0.941E+01 0.405E+01   -.524E+00 -.308E+00 0.542E+00   -.502E-04 -.251E-04 -.879E-03
   -.238E-01 0.115E-01 0.122E+03   0.548E-02 0.360E-02 -.121E+03   0.884E-03 -.999E-02 -.814E+00   -.247E-05 -.299E-05 -.412E-03
   -.125E+00 -.729E-01 0.567E+02   0.113E+00 0.282E-01 -.568E+02   -.150E-02 0.203E-01 0.104E+00   0.687E-05 -.944E-05 -.301E-02
   -.612E+00 -.207E+01 -.592E+01   0.479E+00 0.197E+01 0.548E+01   0.106E+00 0.121E+00 0.385E+00   -.765E-05 0.110E-05 -.100E-02
   0.311E-01 -.377E-01 0.122E+03   -.110E-01 -.986E-02 -.121E+03   -.176E-01 0.303E-01 -.849E+00   -.140E-05 -.454E-05 -.420E-03
   0.324E+00 0.199E+00 0.573E+02   -.332E+00 -.259E+00 -.573E+02   -.245E-02 0.318E-01 -.136E-01   0.263E-05 0.155E-04 -.301E-02
   0.506E+01 0.223E+01 -.209E+02   -.506E+01 -.305E+01 0.203E+02   0.194E-01 0.839E+00 0.611E+00   0.316E-04 0.458E-04 -.874E-03
   -.461E-01 -.161E-01 0.122E+03   -.412E-02 0.693E-03 -.121E+03   0.309E-01 0.539E-02 -.751E+00   -.887E-05 0.239E-07 -.411E-03
   0.958E-01 0.330E-01 0.571E+02   -.936E-01 0.465E-01 -.571E+02   -.144E-01 -.429E-01 0.879E-02   0.178E-05 0.956E-06 -.301E-02
   0.412E+00 0.696E+01 -.592E+01   -.102E+01 -.685E+01 0.550E+01   0.632E+00 -.134E+00 0.390E+00   0.252E-04 -.287E-04 -.502E-03
   0.885E-02 0.581E-01 0.122E+03   0.614E-03 0.133E-01 -.121E+03   -.760E-02 -.243E-01 -.827E+00   -.161E-05 -.117E-05 -.413E-03
   -.364E-01 -.165E+00 0.567E+02   -.201E-01 0.146E+00 -.569E+02   0.350E-01 0.187E-01 0.122E+00   -.108E-04 -.131E-04 -.301E-02
   -.465E+00 0.376E+01 -.142E+02   0.537E+00 -.387E+01 0.140E+02   -.562E-01 0.124E+00 0.207E+00   0.698E-05 -.154E-04 -.898E-03
   0.524E-01 -.749E-01 0.122E+03   0.114E-01 -.164E-01 -.121E+03   -.418E-01 0.444E-01 -.770E+00   -.120E-05 0.573E-05 -.417E-03
   -.178E+00 0.518E+00 0.576E+02   0.171E+00 -.501E+00 -.576E+02   0.275E-01 -.136E-01 0.465E-01   -.618E-05 0.147E-04 -.299E-02
   0.313E+01 0.233E+02 -.355E+01   -.321E+01 -.236E+02 0.296E+01   0.748E-01 0.347E+00 0.614E+00   -.212E-04 0.734E-04 -.453E-03
   -.392E-01 -.358E-01 0.122E+03   -.550E-02 0.686E-02 -.121E+03   0.339E-01 0.458E-01 -.796E+00   0.106E-04 -.382E-07 -.423E-03
   0.303E+00 -.270E+00 0.579E+02   -.303E+00 0.261E+00 -.579E+02   0.547E-02 0.234E-02 -.285E-02   -.277E-05 -.135E-04 -.299E-02
   0.240E+02 -.145E+02 -.527E+01   -.240E+02 0.150E+02 0.476E+01   -.615E-01 -.560E+00 0.503E+00   0.297E-04 -.383E-04 -.875E-03
   0.113E+00 0.636E-01 0.895E+02   -.977E-01 -.433E-01 -.895E+02   -.872E-02 -.928E-02 0.120E+00   -.391E-05 -.242E-05 -.229E-02
   -.117E+00 0.119E+00 0.231E+02   0.430E-01 0.262E-01 -.232E+02   0.804E-01 -.139E+00 0.108E+00   -.472E-05 0.109E-05 -.243E-02
   -.537E-01 0.718E-01 0.897E+02   0.593E-01 -.840E-01 -.897E+02   -.226E-02 0.110E-01 0.418E-01   0.510E-05 0.645E-05 -.229E-02
   -.241E+01 0.842E-01 0.238E+02   0.237E+01 -.150E+00 -.239E+02   0.133E-01 0.689E-01 0.138E+00   -.156E-04 0.129E-04 -.240E-02
   0.634E-01 -.140E+00 0.896E+02   -.399E-02 0.109E+00 -.897E+02   -.481E-01 0.276E-01 0.696E-01   0.630E-05 0.276E-06 -.230E-02
   -.622E+00 -.198E+01 0.253E+02   0.651E+00 0.191E+01 -.253E+02   -.117E-01 0.410E-01 -.731E-02   0.171E-05 -.262E-04 -.241E-02
   -.131E+00 0.725E-01 0.897E+02   0.549E-01 -.618E-01 -.897E+02   0.598E-01 -.133E-01 0.542E-01   0.327E-05 -.784E-05 -.229E-02
   0.700E+00 0.136E+01 0.243E+02   -.819E+00 -.139E+01 -.245E+02   0.791E-01 0.256E-01 0.182E+00   0.216E-04 0.156E-04 -.241E-02
   0.148E+00 -.162E-01 0.898E+02   -.119E+00 -.967E-02 -.897E+02   -.149E-01 0.162E-01 0.122E-02   -.134E-04 0.276E-05 -.228E-02
   0.251E+01 -.702E-01 0.248E+02   -.237E+01 -.392E-01 -.250E+02   -.116E+00 0.103E+00 0.982E-01   0.128E-04 0.110E-04 -.245E-02
   -.460E-01 -.243E-01 0.896E+02   0.289E-01 0.489E-01 -.896E+02   0.132E-01 -.279E-01 0.863E-01   -.986E-05 -.615E-05 -.229E-02
   -.139E+00 0.428E+00 0.233E+02   0.204E+00 -.396E+00 -.234E+02   -.696E-01 -.230E-01 0.890E-01   -.782E-05 -.109E-04 -.241E-02
   -.299E-01 0.551E-01 0.895E+02   0.426E-01 -.411E-01 -.895E+02   -.804E-02 -.768E-02 0.725E-01   0.641E-06 0.232E-05 -.229E-02
   -.616E+00 0.133E+01 0.247E+02   0.731E+00 -.135E+01 -.247E+02   -.883E-01 0.113E-01 0.229E-01   -.173E-04 0.219E-04 -.240E-02
   -.614E-01 0.157E+00 0.898E+02   0.643E-01 -.104E+00 -.898E+02   -.311E-02 -.462E-01 0.102E+00   0.825E-05 -.255E-05 -.230E-02
   -.166E+00 0.713E+00 0.300E+02   0.167E+00 -.627E+00 -.301E+02   0.804E-02 -.602E-01 0.482E-01   0.290E-05 -.391E-05 -.242E-02
   0.128E-01 -.232E+00 0.897E+02   -.266E-01 0.195E+00 -.897E+02   0.486E-02 0.302E-01 0.834E-01   0.378E-05 0.721E-05 -.229E-02
   0.786E+00 -.192E+01 0.242E+02   -.863E+00 0.202E+01 -.243E+02   0.667E-01 -.114E+00 0.163E+00   0.681E-05 -.211E-04 -.239E-02
   0.269E+02 0.423E+02 -.273E+03   -.361E+02 -.663E+02 0.245E+03   0.919E+01 0.240E+02 0.279E+02   0.138E-04 -.100E-03 0.230E-02
   0.245E+02 0.208E+02 -.426E+03   -.360E+02 -.425E+02 0.460E+03   0.115E+02 0.217E+02 -.338E+02   -.464E-04 -.328E-04 0.312E-02
   -.177E+02 0.137E+02 -.420E+03   0.396E+01 -.423E+02 0.446E+03   0.137E+02 0.286E+02 -.264E+02   0.566E-04 -.633E-04 0.316E-02
   0.616E+02 0.148E+01 -.302E+03   -.762E+02 -.223E+02 0.272E+03   0.146E+02 0.208E+02 0.303E+02   -.116E-03 0.117E-03 0.229E-02
   0.118E+02 -.704E+01 -.109E+03   -.119E+02 -.554E+00 0.827E+02   0.122E+00 0.759E+01 0.263E+02   -.140E-03 -.704E-04 -.538E-03
   -.305E+02 0.970E+02 -.294E+03   0.182E+02 -.132E+03 0.279E+03   0.123E+02 0.348E+02 0.150E+02   0.582E-04 -.203E-03 0.226E-02
   0.411E+02 -.359E+02 -.975E+02   -.464E+02 0.406E+02 0.101E+03   0.529E+01 -.470E+01 -.373E+01   0.150E-04 -.168E-04 0.477E-03
   -.551E+02 -.514E+01 -.968E+02   0.623E+02 0.526E+01 0.100E+03   -.717E+01 -.121E+00 -.359E+01   -.101E-04 -.478E-05 0.474E-03
   -.347E+02 -.644E+02 -.557E+02   0.389E+02 0.713E+02 0.551E+02   -.420E+01 -.681E+01 0.588E+00   -.789E-05 0.613E-06 0.478E-03
   0.190E+02 0.189E+02 0.316E+02   -.207E+02 -.207E+02 -.383E+02   0.177E+01 0.177E+01 0.668E+01   -.123E-04 -.558E-05 0.327E-03
   -.419E+02 -.780E+02 -.763E+02   0.455E+02 0.852E+02 0.774E+02   -.359E+01 -.717E+01 -.108E+01   0.200E-04 0.215E-04 0.527E-03
   -.230E+01 0.771E+01 0.350E+02   0.209E+01 -.863E+01 -.419E+02   0.216E+00 0.915E+00 0.687E+01   0.447E-05 -.407E-05 0.320E-03
   0.451E+02 -.586E+02 -.119E+03   -.489E+02 0.639E+02 0.124E+03   0.377E+01 -.526E+01 -.494E+01   -.234E-04 0.238E-04 0.493E-03
   -.518E+02 0.797E+01 -.873E+02   0.588E+02 -.918E+01 0.897E+02   -.699E+01 0.122E+01 -.242E+01   -.200E-04 0.931E-05 0.462E-03
   0.142E+01 -.251E+02 -.119E+03   -.124E+01 0.272E+02 0.126E+03   -.177E+00 -.216E+01 -.753E+01   -.156E-04 0.885E-05 0.230E-03
   0.203E+01 0.409E+01 -.217E+02   -.200E+01 -.417E+01 0.222E+02   -.405E-01 0.655E-01 -.567E+00   0.236E-04 0.460E-05 -.149E-03
   0.335E+02 -.322E+02 -.849E+02   -.384E+02 0.374E+02 0.876E+02   0.497E+01 -.517E+01 -.270E+01   0.424E-05 -.184E-04 0.459E-03
   -.822E+02 -.170E+02 -.774E+02   0.898E+02 0.193E+02 0.794E+02   -.758E+01 -.233E+01 -.196E+01   0.251E-04 -.249E-04 0.433E-03
 -----------------------------------------------------------------------------------------------
   -.478E+02 -.108E+03 -.235E+02   0.426E-13 -.959E-13 -.696E-12   0.478E+02 0.108E+03 0.236E+02   -.172E-03 -.360E-03 -.630E-01
 
 
 POSITION                                       TOTAL-FORCE (eV/Angst)
 -----------------------------------------------------------------------------------
      0.00000      0.00000      0.00000         0.013226     -0.002889      0.003872
      4.77583      8.27137      5.20569         0.029859      0.016760     -0.037596
     -0.01196      0.05457     10.82774        -0.005350     -0.004412     -0.032809
     -1.59263      2.75851      0.00000        -0.021031     -0.010301     -0.020540
     -1.59313      2.76816      5.19788         0.003687     -0.013731     -0.046491
      7.94921      2.73629     10.24520        -0.012154     -0.003632      0.011473
     -3.18525      5.51702      0.00000         0.028153      0.028855     -0.028187
     -3.17488      5.52587      5.17342        -0.001524      0.028328     -0.017664
     -3.16935      5.51528     10.33640        -0.000548      0.009606     -0.051676
      3.18525      0.00000      0.00000        -0.017412      0.005091     -0.005541
      3.18898      0.00294      5.18446        -0.013309     -0.024397     -0.041036
      3.14958      0.00288     10.19695        -0.026797      0.023887     -0.048450
      1.59263      2.75851      0.00000         0.002526     -0.017216     -0.009664
      1.59738      2.75041      5.17020        -0.010926     -0.028347     -0.053738
      1.53819      2.69359     10.29517         0.028921      0.015442     -0.010790
     -0.00000      5.51702      0.00000        -0.019319     -0.010012     -0.012128
     -0.00780      5.52428      5.19111        -0.012182      0.036617     -0.018269
     -0.09877      5.50879     10.84999         0.022526     -0.022405     -0.022954
      6.37050      0.00000      0.00000         0.001912      0.047061     -0.000421
      1.59077      8.27059      5.19560        -0.021434     -0.000458     -0.051557
      6.38389      0.01174     10.32918         0.016253      0.007224     -0.012730
      4.77788      2.75851      0.00000         0.022076     -0.046940     -0.023061
      4.77302      2.75828      5.20513         0.020110      0.003290     -0.033588
      4.74809      2.60750     10.94620        -0.005186     -0.014781      0.020011
      3.18525      5.51702      0.00000        -0.010702      0.016750     -0.034184
      3.18853      5.53027      5.15931         0.005285     -0.006371     -0.030418
      3.12771      5.55746     10.29383        -0.024541     -0.010566     -0.004781
      0.00000      1.83901      2.60418         0.006179      0.010950      0.098486
      0.00008      1.82270      7.76195         0.006314      0.005762     -0.010953
     -1.59263      4.59751      2.60418         0.003435     -0.001223      0.087004
     -1.56777      4.61639      7.80540        -0.030675      0.003219     -0.010913
     -3.18525      7.35602      2.60418         0.011399     -0.003353      0.054315
     -3.22004      7.35522      7.77127         0.016858     -0.020334      0.019749
      3.18525      1.83901      2.60418        -0.015897     -0.002593      0.093541
      3.21005      1.89550      7.79219        -0.040499     -0.013355     -0.007845
      1.59263      4.59751      2.60418         0.013530     -0.009647      0.068175
      1.59518      4.59594      7.68824         0.027664     -0.005976     -0.023471
      0.00000      7.35602      2.60418        -0.003924     -0.003420      0.093259
      0.02211      7.31113      7.80456        -0.005250      0.009037     -0.017561
      6.37050      1.83901      2.60418         0.004671      0.006229      0.080524
      6.33714      1.85551      7.78397         0.027330     -0.006369     -0.028023
      4.77788      4.59751      2.60418        -0.000163      0.007422      0.113475
      4.78083      4.59463      7.71800         0.008148      0.025446     -0.036015
      3.18525      7.35602      2.60418        -0.008937     -0.006643      0.082452
      3.20739      7.36730      7.81277        -0.010312     -0.013917      0.006461
      4.78691      8.12685     12.99142         0.002390     -0.000457     -0.000520
     -1.89015      7.76343     13.51751        -0.001339     -0.008681      0.021903
      7.42272      1.76928     13.58671        -0.002445     -0.014961      0.028418
      4.69684      2.16195     13.16025         0.005246     -0.027439      0.003246
      4.70720      4.66740     11.32143         0.010060      0.000241     -0.036877
      0.02040      5.74779     12.99149        -0.012194     -0.004388     -0.007510
      8.93351      0.44148     13.46701        -0.007361      0.002536     -0.006729
     -3.89544      8.16330     13.44727         0.005221     -0.000149     -0.004179
      3.40149      0.32405     13.42512         0.003936      0.011686     -0.009682
     -2.12294      7.53887     12.56531        -0.003228      0.003912     -0.005203
      7.85809      2.64206     13.70035        -0.000288      0.004793     -0.012150
      7.40219      1.66177     12.58021         0.002966     -0.006064     -0.013740
      4.26576      2.79973     13.76448        -0.010548      0.025136      0.001208
      5.62737      2.02221     13.50142        -0.003256      0.000854     -0.003647
      4.72784      4.93342     12.26679        -0.002860      0.004775      0.026854
      1.64078      4.51874     11.04810        -0.009554     -0.010942     -0.022449
     -0.60515      6.43787     13.34448         0.000100      0.004564     -0.004031
      0.92013      6.04738     13.23476         0.021163      0.010892     -0.004654
 -----------------------------------------------------------------------------------
    total drift:                               -0.003207      0.002454      0.002684


--------------------------------------------------------------------------------------------------------



  FREE ENERGIE OF THE ION-ELECTRON SYSTEM (eV)
  ---------------------------------------------------
  free  energy   TOTEN  =       -69.37428549 eV

  energy  without entropy=      -69.37428549  energy(sigma->0) =      -69.37428549
 


--------------------------------------------------------------------------------------------------------


    POTLOK:  cpu time    9.9056: real time    9.9071


--------------------------------------------------------------------------------------------------------


 stress matrix after NEB project (eV)
     -8.64116     -0.50366     -0.05000
     -0.50366     -8.15851     -0.13062
     -0.05000     -0.13062     -3.05654
  FORCES: max atom, RMS     0.061731    0.028153
  FORCE total and by dimension    0.223461    0.053738
  Stress total and by dimension   12.293081    8.641161
     LOOP+:  cpu time  526.0266: real time  527.4131
 vacuum level on the upper side and lower side of the slab         2.016         3.293
    4ORBIT:  cpu time    0.0000: real time    0.0000
 BZINTS: Fermi energy: -0.487758;138.000000 electrons
         Band energy:-871.522680;  BLOECHL correction: -0.069052

 total amount of memory used by VASP MPI-rank0    62193. kBytes
=======================================================================

   base      :      30000. kBytes
   nonlr-proj:       6290. kBytes
   fftplans  :       6459. kBytes
   grid      :      11407. kBytes
   one-center:         24. kBytes
   wavefun   :       8013. kBytes
 
  
  
 General timing and accounting informations for this job:
 ========================================================
  
                  Total CPU time used (sec):      583.553
                            User time (sec):      574.250
                          System time (sec):        9.303
                         Elapsed time (sec):      593.774
  
                   Maximum memory used (kb):      272768.
                   Average memory used (kb):           0.
  
                          Minor page faults:       254865
                          Major page faults:            0
                 Voluntary context switches:        50175
