Mg_slab_in_a_box                        
           1
     9.555753    0.000000    0.000000
    -4.777876    8.275525    0.000000
     0.000000    0.000000   32.625095
   Mg   O    H 
  45   6  12
Direct configuration=     1
   0.00000000  0.00000000  0.00000000
   0.99953511  0.99949758  0.15956100
   0.00204552  0.00659373  0.33188378
   0.00000001  0.33333336  0.00000000
   0.00053018  0.33449988  0.15932149
   0.99720109  0.33064826  0.31402817
   0.00000002  0.66666672  0.00000000
   0.00162084  0.66773672  0.15857186
   0.00155894  0.66645643  0.31682352
   0.33333334  0.00000000  0.00000000
   0.33390162  0.00035539  0.15891014
   0.32977440  0.00034781  0.31254921
   0.33333335  0.33333336  0.00000000
   0.33334125  0.33235447  0.15847302
   0.32371415  0.32548906  0.31555984
   0.33333336  0.66666672  0.00000000
   0.33295532  0.66754385  0.15911406
   0.32250049  0.66567253  0.33256568
   0.66666668  0.00000000  0.00000000
   0.66617391  0.99940370  0.15925172
   0.66877710  0.00141810  0.31660214
   0.66666668  0.33333336  0.00000000
   0.66614512  0.33330564  0.15954382
   0.65442605  0.31508567  0.33551480
   0.66666670  0.66666672  0.00000000
   0.66781120  0.66826850  0.15813924
   0.66308875  0.67155404  0.31551880
   0.11111113  0.22222222  0.07982145
   0.11013415  0.22025163  0.23791348
   0.11111114  0.55555561  0.07982145
   0.11485286  0.55783679  0.23924534
   0.11111116  0.88888894  0.07982145
   0.10742214  0.88879165  0.23819924
   0.44444450  0.22222222  0.07982145
   0.45045319  0.22904949  0.23884034
   0.44444450  0.55555561  0.07982145
   0.44461670  0.55536580  0.23565422
   0.44444451  0.88888894  0.07982145
   0.44404647  0.88346436  0.23921953
   0.77777779  0.22222222  0.07982145
   0.77528395  0.22421714  0.23858843
   0.77777781  0.55555561  0.07982145
   0.77791262  0.55520686  0.23656628
   0.77777784  0.88888894  0.07982145
   0.78077597  0.89025163  0.23947118
   0.99196230  0.98203457  0.39820336
   0.27125765  0.93811898  0.41432850
   0.88367888  0.21379658  0.41644972
   0.62214243  0.26124593  0.40337814
   0.77460421  0.56400100  0.34701614
   0.34941108  0.69455278  0.39820546
   0.96155664  0.05334809  0.41278056
   0.08556515  0.98643845  0.41217554
   0.37554135  0.03915776  0.41149681
   0.23332881  0.91098392  0.38514244
   0.98197165  0.31926137  0.41993299
   0.87503417  0.20080536  0.38559904
   0.61556497  0.33831490  0.42189853
   0.71107935  0.24436040  0.41383544
   0.79283702  0.59614632  0.37599250
   0.44472413  0.54603627  0.33863821
   0.32564218  0.77794113  0.40902493
   0.46166885  0.73075545  0.40566195
