  63  63   0   0
  0.4095168E+02  0.9555753E-09  0.9555753E-09  0.3262510E-08  0.5000000E-15
  1.000000000000000E-004
  CAR 
 Mg_slab_in_a_box                        
      4.08303609    -25.90772029  301     -0.70265076      1.00000000
    -25.908  0.0000E+00  0.0000E+00
    -25.808  0.0000E+00  0.0000E+00
    -25.708  0.0000E+00  0.0000E+00
    -25.608  0.0000E+00  0.0000E+00
    -25.508  0.0000E+00  0.0000E+00
    -25.408  0.0000E+00  0.0000E+00
    -25.308  0.0000E+00  0.0000E+00
    -25.208  0.0000E+00  0.0000E+00
    -25.108  0.0000E+00  0.0000E+00
    -25.008  0.0000E+00  0.0000E+00
    -24.908  0.0000E+00  0.0000E+00
    -24.808  0.0000E+00  0.0000E+00
    -24.708  0.0000E+00  0.0000E+00
    -24.608  0.0000E+00  0.0000E+00
    -24.508  0.0000E+00  0.0000E+00
    -24.408  0.0000E+00  0.0000E+00
    -24.308  0.0000E+00  0.0000E+00
    -24.208  0.0000E+00  0.0000E+00
    -24.108  0.0000E+00  0.0000E+00
    -24.008  0.0000E+00  0.0000E+00
    -23.908  0.0000E+00  0.0000E+00
    -23.808  0.0000E+00  0.2000E+01
    -23.708  0.0000E+00  0.4000E+01
    -23.608  0.0000E+00  0.4000E+01
    -23.508  0.0000E+00  0.4000E+01
    -23.408  0.0000E+00  0.6000E+01
    -23.309  0.0000E+00  0.8000E+01
    -23.209  0.0000E+00  0.8000E+01
    -23.109  0.0000E+00  0.1000E+02
    -23.009  0.0000E+00  0.1000E+02
    -22.909  0.0000E+00  0.1000E+02
    -22.809  0.0000E+00  0.1000E+02
    -22.709  0.0000E+00  0.1000E+02
    -22.609  0.0000E+00  0.1000E+02
    -22.509  0.0000E+00  0.1000E+02
    -22.409  0.0000E+00  0.1000E+02
    -22.309  0.0000E+00  0.1000E+02
    -22.209  0.0000E+00  0.1000E+02
    -22.109  0.0000E+00  0.1000E+02
    -22.009  0.0000E+00  0.1000E+02
    -21.909  0.0000E+00  0.1000E+02
    -21.809  0.0000E+00  0.1000E+02
    -21.709  0.0000E+00  0.1000E+02
    -21.609  0.0000E+00  0.1000E+02
    -21.509  0.0000E+00  0.1000E+02
    -21.409  0.0000E+00  0.1000E+02
    -21.309  0.0000E+00  0.1000E+02
    -21.209  0.0000E+00  0.1000E+02
    -21.109  0.0000E+00  0.1200E+02
    -21.009  0.0000E+00  0.1200E+02
    -20.909  0.0000E+00  0.1200E+02
    -20.809  0.0000E+00  0.1200E+02
    -20.709  0.0000E+00  0.1200E+02
    -20.609  0.0000E+00  0.1200E+02
    -20.509  0.0000E+00  0.1200E+02
    -20.409  0.0000E+00  0.1200E+02
    -20.309  0.0000E+00  0.1200E+02
    -20.209  0.0000E+00  0.1200E+02
    -20.110  0.0000E+00  0.1200E+02
    -20.010  0.0000E+00  0.1200E+02
    -19.910  0.0000E+00  0.1200E+02
    -19.810  0.0000E+00  0.1200E+02
    -19.710  0.0000E+00  0.1200E+02
    -19.610  0.0000E+00  0.1200E+02
    -19.510  0.0000E+00  0.1200E+02
    -19.410  0.0000E+00  0.1200E+02
    -19.310  0.0000E+00  0.1200E+02
    -19.210  0.0000E+00  0.1200E+02
    -19.110  0.0000E+00  0.1200E+02
    -19.010  0.0000E+00  0.1200E+02
    -18.910  0.0000E+00  0.1200E+02
    -18.810  0.0000E+00  0.1200E+02
    -18.710  0.0000E+00  0.1200E+02
    -18.610  0.0000E+00  0.1200E+02
    -18.510  0.0000E+00  0.1200E+02
    -18.410  0.0000E+00  0.1200E+02
    -18.310  0.0000E+00  0.1200E+02
    -18.210  0.0000E+00  0.1200E+02
    -18.110  0.0000E+00  0.1200E+02
    -18.010  0.0000E+00  0.1200E+02
    -17.910  0.0000E+00  0.1200E+02
    -17.810  0.0000E+00  0.1200E+02
    -17.710  0.0000E+00  0.1200E+02
    -17.610  0.0000E+00  0.1200E+02
    -17.510  0.0000E+00  0.1200E+02
    -17.410  0.0000E+00  0.1200E+02
    -17.310  0.0000E+00  0.1200E+02
    -17.210  0.0000E+00  0.1200E+02
    -17.110  0.0000E+00  0.1200E+02
    -17.010  0.0000E+00  0.1200E+02
    -16.910  0.0000E+00  0.1200E+02
    -16.811  0.0000E+00  0.1200E+02
    -16.711  0.0000E+00  0.1200E+02
    -16.611  0.0000E+00  0.1200E+02
    -16.511  0.0000E+00  0.1200E+02
    -16.411  0.0000E+00  0.1200E+02
    -16.311  0.0000E+00  0.1200E+02
    -16.211  0.0000E+00  0.1200E+02
    -16.111  0.0000E+00  0.1200E+02
    -16.011  0.0000E+00  0.1200E+02
    -15.911  0.0000E+00  0.1200E+02
    -15.811  0.0000E+00  0.1200E+02
    -15.711  0.0000E+00  0.1200E+02
    -15.611  0.0000E+00  0.1200E+02
    -15.511  0.0000E+00  0.1200E+02
    -15.411  0.0000E+00  0.1200E+02
    -15.311  0.0000E+00  0.1200E+02
    -15.211  0.0000E+00  0.1200E+02
    -15.111  0.0000E+00  0.1200E+02
    -15.011  0.0000E+00  0.1200E+02
    -14.911  0.0000E+00  0.1200E+02
    -14.811  0.0000E+00  0.1200E+02
    -14.711  0.0000E+00  0.1200E+02
    -14.611  0.0000E+00  0.1200E+02
    -14.511  0.0000E+00  0.1200E+02
    -14.411  0.0000E+00  0.1200E+02
    -14.311  0.0000E+00  0.1200E+02
    -14.211  0.0000E+00  0.1200E+02
    -14.111  0.0000E+00  0.1200E+02
    -14.011  0.0000E+00  0.1200E+02
    -13.911  0.0000E+00  0.1200E+02
    -13.811  0.0000E+00  0.1200E+02
    -13.711  0.0000E+00  0.1200E+02
    -13.612  0.0000E+00  0.1200E+02
    -13.512  0.0000E+00  0.1200E+02
    -13.412  0.0000E+00  0.1200E+02
    -13.312  0.0000E+00  0.1200E+02
    -13.212  0.0000E+00  0.1200E+02
    -13.112  0.0000E+00  0.1200E+02
    -13.012  0.0000E+00  0.1200E+02
    -12.912  0.0000E+00  0.1200E+02
    -12.812  0.0000E+00  0.1200E+02
    -12.712  0.0000E+00  0.1200E+02
    -12.612  0.0000E+00  0.1200E+02
    -12.512  0.0000E+00  0.1200E+02
    -12.412  0.0000E+00  0.1200E+02
    -12.312  0.0000E+00  0.1200E+02
    -12.212  0.0000E+00  0.1200E+02
    -12.112  0.0000E+00  0.1200E+02
    -12.012  0.0000E+00  0.1200E+02
    -11.912  0.0000E+00  0.1400E+02
    -11.812  0.0000E+00  0.1600E+02
    -11.712  0.0000E+00  0.1600E+02
    -11.612  0.0000E+00  0.1600E+02
    -11.512  0.0000E+00  0.1800E+02
    -11.412  0.0000E+00  0.1800E+02
    -11.312  0.0000E+00  0.1800E+02
    -11.212  0.0000E+00  0.1800E+02
    -11.112  0.0000E+00  0.2000E+02
    -11.012  0.0000E+00  0.2000E+02
    -10.912  0.0000E+00  0.2200E+02
    -10.812  0.0000E+00  0.2200E+02
    -10.712  0.0000E+00  0.2200E+02
    -10.612  0.0000E+00  0.2200E+02
    -10.512  0.0000E+00  0.2200E+02
    -10.412  0.0000E+00  0.2200E+02
    -10.313  0.0000E+00  0.2200E+02
    -10.213  0.0000E+00  0.2200E+02
    -10.113  0.0000E+00  0.2200E+02
    -10.013  0.0000E+00  0.2200E+02
     -9.913  0.0000E+00  0.2200E+02
     -9.813  0.0000E+00  0.2200E+02
     -9.713  0.0000E+00  0.2200E+02
     -9.613  0.0000E+00  0.2200E+02
     -9.513  0.0000E+00  0.2200E+02
     -9.413  0.0000E+00  0.2200E+02
     -9.313  0.0000E+00  0.2200E+02
     -9.213  0.0000E+00  0.2200E+02
     -9.113  0.0000E+00  0.2200E+02
     -9.013  0.0000E+00  0.2200E+02
     -8.913  0.0000E+00  0.2200E+02
     -8.813  0.0000E+00  0.2400E+02
     -8.713  0.0000E+00  0.2600E+02
     -8.613  0.0000E+00  0.2600E+02
     -8.513  0.0000E+00  0.2800E+02
     -8.413  0.0000E+00  0.2800E+02
     -8.313  0.0000E+00  0.2800E+02
     -8.213  0.0000E+00  0.3000E+02
     -8.113  0.0000E+00  0.3000E+02
     -8.013  0.0000E+00  0.3000E+02
     -7.913  0.0000E+00  0.3000E+02
     -7.813  0.0000E+00  0.3200E+02
     -7.713  0.0000E+00  0.3200E+02
     -7.613  0.0000E+00  0.3200E+02
     -7.513  0.0000E+00  0.3400E+02
     -7.413  0.1761E+01  0.3406E+02
     -7.313  0.4491E+01  0.3437E+02
     -7.213  0.8579E+01  0.3508E+02
     -7.114  0.4594E+01  0.3574E+02
     -7.014  0.2450E+01  0.3601E+02
     -6.914  0.1310E+02  0.3680E+02
     -6.814  0.5302E+01  0.3787E+02
     -6.714  0.1139E+02  0.3813E+02
     -6.614  0.7816E+01  0.4017E+02
     -6.514  0.2266E+02  0.4250E+02
     -6.414  0.9423E+01  0.4384E+02
     -6.314  0.1305E+02  0.4593E+02
     -6.214  0.3214E+01  0.4744E+02
     -6.114  0.4390E+01  0.4776E+02
     -6.014  0.1100E+02  0.4853E+02
     -5.914  0.1605E+02  0.4995E+02
     -5.814  0.4539E+02  0.5236E+02
     -5.714  0.8986E+01  0.5647E+02
     -5.614  0.6182E+01  0.5723E+02
     -5.514  0.1860E+02  0.5919E+02
     -5.414  0.1602E+02  0.5994E+02
     -5.314  0.1106E+02  0.6174E+02
     -5.214  0.2319E+02  0.6231E+02
     -5.114  0.1412E+02  0.6453E+02
     -5.014  0.0000E+00  0.6600E+02
     -4.914  0.9349E+01  0.6713E+02
     -4.814  0.4332E+01  0.6781E+02
     -4.714  0.1005E+02  0.6947E+02
     -4.614  0.6232E+01  0.7027E+02
     -4.514  0.2171E+02  0.7130E+02
     -4.414  0.1858E+02  0.7378E+02
     -4.314  0.1458E+02  0.7549E+02
     -4.214  0.1766E+02  0.7710E+02
     -4.114  0.8411E+01  0.7861E+02
     -4.014  0.1529E+01  0.8026E+02
     -3.914  0.8492E+01  0.8072E+02
     -3.815  0.2385E+02  0.8256E+02
     -3.715  0.6057E+01  0.8446E+02
     -3.615  0.2083E+02  0.8570E+02
     -3.515  0.7983E+01  0.8696E+02
     -3.415  0.6990E+01  0.8771E+02
     -3.315  0.6779E+01  0.8838E+02
     -3.215  0.6855E+01  0.8907E+02
     -3.115  0.2442E+02  0.9090E+02
     -3.015  0.2080E+02  0.9272E+02
     -2.915  0.3347E+02  0.9489E+02
     -2.815  0.3189E+02  0.9797E+02
     -2.715  0.1653E+02  0.1005E+03
     -2.615  0.1094E+02  0.1016E+03
     -2.515  0.1460E+02  0.1037E+03
     -2.415  0.7493E+02  0.1059E+03
     -2.315  0.6932E+01  0.1074E+03
     -2.215  0.4765E+01  0.1091E+03
     -2.115  0.3362E+01  0.1095E+03
     -2.015  0.4394E+01  0.1112E+03
     -1.915  0.1402E+02  0.1120E+03
     -1.815  0.2997E+02  0.1142E+03
     -1.715  0.2881E+02  0.1172E+03
     -1.615  0.3063E+02  0.1203E+03
     -1.515  0.2258E+02  0.1228E+03
     -1.415  0.1857E+02  0.1249E+03
     -1.315  0.1495E+02  0.1267E+03
     -1.215  0.1134E+02  0.1280E+03
     -1.115  0.1239E+02  0.1291E+03
     -1.015  0.1678E+02  0.1314E+03
     -0.915  0.1748E+02  0.1339E+03
     -0.815  0.2581E+02  0.1359E+03
     -0.715  0.2138E+02  0.1376E+03
     -0.616  0.2915E+02  0.1412E+03
     -0.516  0.1685E+02  0.1434E+03
     -0.416  0.8881E+01  0.1448E+03
     -0.316  0.2465E+02  0.1465E+03
     -0.216  0.9955E+01  0.1475E+03
     -0.116  0.8702E+01  0.1491E+03
     -0.016  0.1208E+02  0.1515E+03
      0.084  0.9407E+01  0.1540E+03
      0.184  0.3122E+02  0.1578E+03
      0.284  0.0000E+00  0.1600E+03
      0.384  0.0000E+00  0.1620E+03
      0.484  0.4220E+02  0.1638E+03
      0.584  0.2101E+02  0.1665E+03
      0.684  0.1648E+02  0.1689E+03
      0.784  0.1596E+02  0.1710E+03
      0.884  0.4000E+02  0.1734E+03
      0.984  0.2902E+02  0.1761E+03
      1.084  0.2881E+02  0.1787E+03
      1.184  0.2411E+02  0.1809E+03
      1.284  0.7022E+02  0.1837E+03
      1.384  0.2512E+02  0.1877E+03
      1.484  0.4446E+02  0.1918E+03
      1.584  0.4774E+02  0.1960E+03
      1.684  0.3227E+02  0.1995E+03
      1.784  0.1588E+02  0.2006E+03
      1.884  0.3564E+01  0.2023E+03
      1.984  0.1356E+02  0.2030E+03
      2.084  0.0000E+00  0.2040E+03
      2.184  0.0000E+00  0.2040E+03
      2.284  0.0000E+00  0.2040E+03
      2.384  0.0000E+00  0.2040E+03
      2.484  0.0000E+00  0.2040E+03
      2.583  0.0000E+00  0.2040E+03
      2.683  0.0000E+00  0.2040E+03
      2.783  0.0000E+00  0.2040E+03
      2.883  0.0000E+00  0.2040E+03
      2.983  0.0000E+00  0.2040E+03
      3.083  0.0000E+00  0.2040E+03
      3.183  0.0000E+00  0.2040E+03
      3.283  0.0000E+00  0.2040E+03
      3.383  0.0000E+00  0.2040E+03
      3.483  0.0000E+00  0.2040E+03
      3.583  0.0000E+00  0.2040E+03
      3.683  0.0000E+00  0.2040E+03
      3.783  0.0000E+00  0.2040E+03
      3.883  0.0000E+00  0.2040E+03
      3.983  0.0000E+00  0.2040E+03
      4.083  0.0000E+00  0.2040E+03
