       N       E                     dE             d eps       ncg     rms          rms(c)
RMM:   1     0.124366126959E+04    0.12437E+04   -0.27944E+04   510   0.785E+02
RMM:   2     0.545541184813E+03   -0.69812E+03   -0.75781E+03   510   0.166E+02
RMM:   3     0.310312986392E+03   -0.23523E+03   -0.30017E+03   510   0.834E+01
RMM:   4     0.138034716279E+03   -0.17228E+03   -0.14831E+03   510   0.790E+01
RMM:   5     0.225285118666E+02   -0.11551E+03   -0.91781E+02   510   0.646E+01
RMM:   6    -0.423292649285E+02   -0.64858E+02   -0.48985E+02   510   0.461E+01
RMM:   7    -0.702799458858E+02   -0.27951E+02   -0.20954E+02   510   0.268E+01
RMM:   8    -0.779452935716E+02   -0.76653E+01   -0.62288E+01   510   0.143E+01
RMM:   9    -0.802676834644E+02   -0.23224E+01   -0.22211E+01  1468   0.778E+00
RMM:  10    -0.805662853704E+02   -0.29860E+00   -0.31582E+00  1744   0.284E+00
RMM:  11    -0.805651299532E+02    0.11554E-02   -0.16729E-01  1711   0.706E-01
RMM:  12    -0.805675354979E+02   -0.24055E-02   -0.33029E-02  1801   0.286E-01    0.202E+01
RMM:  13    -0.705529900540E+02    0.10015E+02   -0.62107E+01  1419   0.144E+01    0.793E+00
RMM:  14    -0.923587664063E+02   -0.21806E+02   -0.11072E+01  1656   0.358E+00    0.102E+01
RMM:  15    -0.693264881234E+02    0.23032E+02   -0.25575E+00  1443   0.147E+00    0.496E+00
RMM:  16    -0.692826655693E+02    0.43823E-01   -0.13736E+00  1559   0.211E+00    0.242E+00
RMM:  17    -0.689602786354E+02    0.32239E+00   -0.41758E-01  1334   0.124E+00    0.832E-01
RMM:  18    -0.689367189201E+02    0.23560E-01   -0.76457E-02  1572   0.531E-01    0.393E-01
RMM:  19    -0.689347401831E+02    0.19787E-02   -0.43593E-02  1353   0.399E-01    0.266E-01
RMM:  20    -0.689343885690E+02    0.35161E-03   -0.13793E-02  1487   0.227E-01    0.100E-01
RMM:  21    -0.689319355396E+02    0.24530E-02   -0.23232E-03  1467   0.849E-02    0.550E-02
RMM:  22    -0.689269601119E+02    0.49754E-02   -0.78121E-04  1446   0.462E-02    0.491E-02
RMM:  23    -0.689216289687E+02    0.53311E-02   -0.44277E-04  1240   0.368E-02    0.201E-02
RMM:  24    -0.689221839821E+02   -0.55501E-03   -0.30405E-04  1136   0.381E-02    0.130E-02
RMM:  25    -0.689231280467E+02   -0.94406E-03   -0.16855E-04  1070   0.296E-02    0.833E-03
RMM:  26    -0.689229763291E+02    0.15172E-03   -0.33282E-04  1072   0.308E-02    0.678E-03
RMM:  27    -0.689229097555E+02    0.66574E-04   -0.10401E-04   954   0.151E-02    0.208E-03
RMM:  28    -0.689229266173E+02   -0.16862E-04   -0.86059E-05   901   0.122E-02    0.140E-03
RMM:  29    -0.689229418815E+02   -0.15264E-04   -0.58129E-05   861   0.943E-03    0.825E-04
RMM:  30    -0.689229540777E+02   -0.12196E-04   -0.20525E-05   830   0.876E-03    0.518E-04
RMM:  31    -0.689230125980E+02   -0.58520E-04   -0.13770E-05   781   0.721E-03    0.157E-03
RMM:  32    -0.689230183062E+02   -0.57081E-05   -0.69142E-06   734   0.428E-03    0.103E-03
RMM:  33    -0.689229926964E+02    0.25610E-04   -0.79797E-06   933   0.485E-03    0.487E-04
RMM:  34    -0.689229743277E+02    0.18369E-04   -0.12811E-05  1029   0.623E-03    0.312E-04
RMM:  35    -0.689229625069E+02    0.11821E-04   -0.29509E-05  1165   0.876E-03    0.925E-05
RMM:  36    -0.689229486106E+02    0.13896E-04   -0.52962E-05  1223   0.132E-02    0.990E-05
RMM:  37    -0.689229574765E+02   -0.88659E-05   -0.25821E-05  1139   0.796E-03    0.758E-05
RMM:  38    -0.689229601425E+02   -0.26660E-05   -0.69858E-05  1144   0.122E-02    0.912E-05
RMM:  39    -0.689229666950E+02   -0.65525E-05   -0.16237E-05  1114   0.832E-03    0.662E-05
RMM:  40    -0.689229707665E+02   -0.40715E-05   -0.64570E-06  1068   0.560E-03
   1 F= -.68922971E+02 E0= -.68922971E+02  d E =0.000000E+00
