 vasp.5.4.4.18Apr17-6-g9f103f2a35 (build Jun 08 2018 12:06:12) complex          
  
 executed on             LinuxIFC date 2019.06.06  07:34:14
 running on   72 total cores
 distrk:  each k-point on   72 cores,    1 groups
 distr:  one band on NCORES_PER_BAND=  24 cores,    3 groups


--------------------------------------------------------------------------------------------------------


 INCAR:
 POTCAR:    PAW_PBE Mg 13Apr2007                  
 POTCAR:    PAW_PBE O 08Apr2002                   
 POTCAR:    PAW_PBE H 15Jun2001                   

 ----------------------------------------------------------------------------- 
|                                                                             |
|           W    W    AA    RRRRR   N    N  II  N    N   GGGG   !!!           |
|           W    W   A  A   R    R  NN   N  II  NN   N  G    G  !!!           |
|           W    W  A    A  R    R  N N  N  II  N N  N  G       !!!           |
|           W WW W  AAAAAA  RRRRR   N  N N  II  N  N N  G  GGG   !            |
|           WW  WW  A    A  R   R   N   NN  II  N   NN  G    G                |
|           W    W  A    A  R    R  N    N  II  N    N   GGGG   !!!           |
|                                                                             |
|      For optimal performance we recommend to set                            |
|        NCORE= 4 - approx SQRT( number of cores)                             |
|      NCORE specifies how many cores store one orbital (NPAR=cpu/NCORE).     |
|      This setting can  greatly improve the performance of VASP for DFT.     |
|      The default,   NCORE=1            might be grossly inefficient         |
|      on modern multi-core architectures or massively parallel machines.     |
|      Do your own testing !!!!                                               |
|      Unfortunately you need to use the default for GW and RPA calculations. |
|      (for HF NCORE is supported but not extensively tested yet)             |
|                                                                             |
 ----------------------------------------------------------------------------- 


 ----------------------------------------------------------------------------- 
|                                                                             |
|  ADVICE TO THIS USER RUNNING 'VASP/VAMP'   (HEAR YOUR MASTER'S VOICE ...):  |
|                                                                             |
|      You have switched on vdW-DFT.                                          |
|      This routine was written and supplied by Jiri Klimes.                  |
|      We recommed that you carefully read and cite the following             |
|      publication                                                            |
|      J. Klimes, D.R. Bowler, A. Michelides                                  |
|        J. Phys.: Cond Matt. 22 022201 (2010)                                |
|      J. Klimes, D.R. Bowler, A. Michelides                                  |
|        Phys. Rev. B. 83, 195131 (2011)                                      |
|      and references therein.                                                |
|                                                                             |
 ----------------------------------------------------------------------------- 

 POTCAR:    PAW_PBE Mg 13Apr2007                  
   VRHFIN =Mg: s2p0                                                             
   LEXCH  = PE                                                                  
   EATOM  =    23.0369 eV,    1.6932 Ry                                         
                                                                                
   TITEL  = PAW_PBE Mg 13Apr2007                                                
   LULTRA =        F    use ultrasoft PP ?                                      
   IUNSCR =        1    unscreen: 0-lin 1-nonlin 2-no                           
   RPACOR =    1.500    partial core radius                                     
   POMASS =   24.305; ZVAL   =    2.000    mass and valenz                      
   RCORE  =    2.000    outmost cutoff radius                                   
   RWIGS  =    2.880; RWIGS  =    1.524    wigner-seitz radius (au A)           
   ENMAX  =  200.000; ENMIN  =  100.000 eV                                      
   RCLOC  =    1.506    cutoff for local pot                                    
   LCOR   =        T    correct aug charges                                     
   LPAW   =        T    paw PP                                                  
   EAUG   =  454.734                                                            
   DEXC   =    0.000                                                            
   RMAX   =    2.045    core radius for proj-oper                               
   RAUG   =    1.300    factor for augmentation sphere                          
   RDEP   =    2.025    radius for radial grids                                 
   RDEPT  =    1.942    core radius for aug-charge                              
                                                                                
   Atomic configuration                                                         
    6 entries                                                                   
     n  l   j            E        occ.                                          
     1  0  0.50     -1259.6230   2.0000                                         
     2  0  0.50       -79.8442   2.0000                                         
     2  1  1.50       -46.6121   6.0000                                         
     3  0  0.50        -4.7055   2.0000                                         
     3  1  0.50        -1.3660   0.0000                                         
     3  2  1.50        -1.3606   0.0000                                         
   Description                                                                  
     l       E           TYP  RCUT    TYP  RCUT                                 
     0     -4.7054661     23  2.000                                             
     0     27.2116520     23  2.000                                             
     1      1.3605826     23  2.000                                             
     1     27.2116520     23  2.000                                             
     2     -1.3605826     23  2.000                                             
  local pseudopotential read in
  partial core-charges read in
  partial kinetic energy density read in
  atomic valenz-charges read in
  non local Contribution for L=           0  read in
    real space projection operators read in
  non local Contribution for L=           0  read in
    real space projection operators read in
  non local Contribution for L=           1  read in
    real space projection operators read in
  non local Contribution for L=           1  read in
    real space projection operators read in
  non local Contribution for L=           2  read in
    real space projection operators read in
    PAW grid and wavefunctions read in
 
   number of l-projection  operators is LMAX  =           5
   number of lm-projection operators is LMMAX =          13
 
 POTCAR:    PAW_PBE O 08Apr2002                   
   VRHFIN =O: s2p4                                                              
   LEXCH  = PE                                                                  
   EATOM  =   432.3788 eV,   31.7789 Ry                                         
                                                                                
   TITEL  = PAW_PBE O 08Apr2002                                                 
   LULTRA =        F    use ultrasoft PP ?                                      
   IUNSCR =        1    unscreen: 0-lin 1-nonlin 2-no                           
   RPACOR =    1.200    partial core radius                                     
   POMASS =   16.000; ZVAL   =    6.000    mass and valenz                      
   RCORE  =    1.520    outmost cutoff radius                                   
   RWIGS  =    1.550; RWIGS  =    0.820    wigner-seitz radius (au A)           
   ENMAX  =  400.000; ENMIN  =  300.000 eV                                      
   ICORE  =        2    local potential                                         
   LCOR   =        T    correct aug charges                                     
   LPAW   =        T    paw PP                                                  
   EAUG   =  605.392                                                            
   DEXC   =    0.000                                                            
   RMAX   =    1.553    core radius for proj-oper                               
   RAUG   =    1.300    factor for augmentation sphere                          
   RDEP   =    1.550    radius for radial grids                                 
   RDEPT  =    1.329    core radius for aug-charge                              
                                                                                
   Atomic configuration                                                         
    4 entries                                                                   
     n  l   j            E        occ.                                          
     1  0  0.50      -514.6923   2.0000                                         
     2  0  0.50       -23.9615   2.0000                                         
     2  1  0.50        -9.0305   4.0000                                         
     3  2  1.50        -9.5241   0.0000                                         
   Description                                                                  
     l       E           TYP  RCUT    TYP  RCUT                                 
     0    -23.9615318     23  1.200                                             
     0     -9.5240782     23  1.200                                             
     1     -9.0304911     23  1.520                                             
     1      8.1634956     23  1.520                                             
     2     -9.5240782      7  1.500                                             
  local pseudopotential read in
  partial core-charges read in
  partial kinetic energy density read in
  kinetic energy density of atom read in
  atomic valenz-charges read in
  non local Contribution for L=           0  read in
    real space projection operators read in
  non local Contribution for L=           0  read in
    real space projection operators read in
  non local Contribution for L=           1  read in
    real space projection operators read in
  non local Contribution for L=           1  read in
    real space projection operators read in
    PAW grid and wavefunctions read in
 
   number of l-projection  operators is LMAX  =           4
   number of lm-projection operators is LMMAX =           8
 
 POTCAR:    PAW_PBE H 15Jun2001                   
   VRHFIN =H: ultrasoft test                                                    
   LEXCH  = PE                                                                  
   EATOM  =    12.4884 eV,    0.9179 Ry                                         
                                                                                
   TITEL  = PAW_PBE H 15Jun2001                                                 
   LULTRA =        F    use ultrasoft PP ?                                      
   IUNSCR =        0    unscreen: 0-lin 1-nonlin 2-no                           
   RPACOR =    0.000    partial core radius                                     
   POMASS =    1.000; ZVAL   =    1.000    mass and valenz                      
   RCORE  =    1.100    outmost cutoff radius                                   
   RWIGS  =    0.700; RWIGS  =    0.370    wigner-seitz radius (au A)           
   ENMAX  =  250.000; ENMIN  =  200.000 eV                                      
   RCLOC  =    0.701    cutoff for local pot                                    
   LCOR   =        T    correct aug charges                                     
   LPAW   =        T    paw PP                                                  
   EAUG   =  400.000                                                            
   RMAX   =    1.123    core radius for proj-oper                               
   RAUG   =    1.200    factor for augmentation sphere                          
   RDEP   =    1.112    radius for radial grids                                 
   RDEPT  =    0.926    core radius for aug-charge                              
                                                                                
   Atomic configuration                                                         
    2 entries                                                                   
     n  l   j            E        occ.                                          
     1  0  0.50        -6.4927   1.0000                                         
     2  1  0.50        -3.4015   0.0000                                         
   Description                                                                  
     l       E           TYP  RCUT    TYP  RCUT                                 
     0     -6.4927494     23  1.100                                             
     0      6.8029130     23  1.100                                             
     1     -4.0817478     23  1.100                                             
  local pseudopotential read in
  atomic valenz-charges read in
  non local Contribution for L=           0  read in
    real space projection operators read in
  non local Contribution for L=           0  read in
    real space projection operators read in
  non local Contribution for L=           1  read in
    real space projection operators read in
    PAW grid and wavefunctions read in
 
   number of l-projection  operators is LMAX  =           3
   number of lm-projection operators is LMMAX =           5
 
 Optimization of the real space projectors (new method)

 maximal supplied QI-value         = 18.90
 optimisation between [QCUT,QGAM] = [ 11.53, 23.24] = [ 37.21,151.29] Ry 
 Optimized for a Real-space Cutoff    1.28 Angstroem

   l    n(q)    QCUT    max X(q) W(low)/X(q) W(high)/X(q)  e(spline) 
   0      9    11.527    28.265    0.62E-04    0.53E-04    0.73E-07
   0      9    11.527    10.429    0.52E-04    0.40E-04    0.58E-07
   1      8    11.527    13.073    0.98E-04    0.18E-03    0.86E-07
   1      8    11.527     9.625    0.79E-04    0.15E-03    0.74E-07
   2      8    11.527     4.652    0.22E-03    0.72E-04    0.47E-07
 Optimization of the real space projectors (new method)

 maximal supplied QI-value         = 24.76
 optimisation between [QCUT,QGAM] = [ 11.64, 23.27] = [ 37.91,151.63] Ry 
 Optimized for a Real-space Cutoff    1.14 Angstroem

   l    n(q)    QCUT    max X(q) W(low)/X(q) W(high)/X(q)  e(spline) 
   0      8    11.635    20.381    0.10E-03    0.33E-03    0.24E-06
   0      8    11.635    15.268    0.11E-03    0.35E-03    0.26E-06
   1      7    11.635     5.964    0.24E-03    0.31E-03    0.30E-06
   1      7    11.635     5.382    0.22E-03    0.25E-03    0.26E-06
 Optimization of the real space projectors (new method)

 maximal supplied QI-value         = 34.20
 optimisation between [QCUT,QGAM] = [ 11.63, 23.26] = [ 37.87,151.49] Ry 
 Optimized for a Real-space Cutoff    1.21 Angstroem

   l    n(q)    QCUT    max X(q) W(low)/X(q) W(high)/X(q)  e(spline) 
   0      8    11.629    19.460    0.17E-03    0.34E-03    0.21E-06
   0      8    11.629    12.209    0.16E-03    0.33E-03    0.21E-06
   1      8    11.629     4.655    0.18E-03    0.16E-03    0.26E-06

 ----------------------------------------------------------------------------- 
|                                                                             |
|  ADVICE TO THIS USER RUNNING 'VASP/VAMP'   (HEAR YOUR MASTER'S VOICE ...):  |
|                                                                             |
|      You enforced a specific xc-type in the INCAR file,                     |
|      a different type was found on the POTCAR file                          |
|          I HOPE YOU KNOW, WHAT YOU ARE  DOING                               |
|                                                                             |
 ----------------------------------------------------------------------------- 

  PAW_PBE Mg 13Apr2007                  :
 energy of atom  1       EATOM=  -23.0369
 kinetic energy error for atom=    0.0000 (will be added to EATOM!!)
  PAW_PBE O 08Apr2002                   :
 energy of atom  2       EATOM= -432.3788
 kinetic energy error for atom=    0.0208 (will be added to EATOM!!)
  PAW_PBE H 15Jun2001                   :
 energy of atom  3       EATOM=  -12.4884
 kinetic energy error for atom=    0.0014 (will be added to EATOM!!)
 
 
 POSCAR: Mg   O    H                             
  positions in direct lattice
  velocities in cartesian coordinates
 exchange correlation table for  LEXCH =       42
   RHO(1)=    0.500       N(1)  =     2000
   RHO(2)=  100.500       N(2)  =     4000

 VTST: version 3.2, (02/03/18)

 CHAIN: initializing optimizer
 
 OPT: Using VASP Dynamics algorithm
 CHAIN: Read ICHAIN            0
 
 POSCAR: Mg   O    H                             
  positions in direct lattice
  velocities in cartesian coordinates
 


--------------------------------------------------------------------------------------------------------


 ion  position               nearest neighbor table
   1  0.000  0.000  0.000-   7 3.19  25 3.19  19 3.19  10 3.19   4 3.19  13 3.19  44 3.19  32 3.19
                            28 3.19
   2  0.999  0.000  0.158-  33 3.08  29 3.13  44 3.15  28 3.15  32 3.16  26 3.16  14 3.17  20 3.17
                             8 3.18   5 3.19  11 3.20  45 3.22
   3  0.003  0.007  0.330-  46 2.15  15 3.11   9 3.22  12 3.22  21 3.23  27 3.24   6 3.29  45 3.49
                            29 3.54  33 3.62
   4  0.000  0.333  0.000-  22 3.19  13 3.19  19 3.19  16 3.19   1 3.19   7 3.19  40 3.19  30 3.19
                            28 3.19
   5  0.000  0.334  0.158-  30 3.13  40 3.13  28 3.14  29 3.15  41 3.15  31 3.17  14 3.18  17 3.18
                             2 3.19   8 3.19  23 3.19  20 3.20
   6  0.990  0.340  0.312-  31 3.08  41 3.09  21 3.10  29 3.15   9 3.16  24 3.16  15 3.20  18 3.28
                             3 3.29
   7  0.000  0.667  0.000-   1 3.19  10 3.19  25 3.19  16 3.19  22 3.19   4 3.19  42 3.19  32 3.19
                            30 3.19
   8  0.999  0.668  0.158-  33 3.12  32 3.14  42 3.14  26 3.15  30 3.15  31 3.17  23 3.17   2 3.18
                            17 3.18  11 3.19   5 3.19  43 3.28
   9  0.012  0.681  0.313-  18 3.04  43 3.08  33 3.10  12 3.11  31 3.12   6 3.16   3 3.22  27 3.33
                            24 3.35
  10  0.333  0.000  0.000-  16 3.19   7 3.19  19 3.19   1 3.19  22 3.19  13 3.19  32 3.19  34 3.19
                            38 3.19
  11  0.333  0.000  0.157-  34 3.12  32 3.12  38 3.13  33 3.14  17 3.17  14 3.18  20 3.18   8 3.19
                            35 3.19  23 3.20   2 3.20  39 3.20
  12  0.333  0.011  0.309-  35 3.00  33 3.05  39 3.05   9 3.11  15 3.12  18 3.18   3 3.22  21 3.23
                            24 3.24
  13  0.333  0.333  0.000-  22 3.19   4 3.19  10 3.19   1 3.19  25 3.19  16 3.19  28 3.19  36 3.19
                            34 3.19
  14  0.332  0.332  0.157-  28 3.11  34 3.12  36 3.13  37 3.13  35 3.14   2 3.17   5 3.18  11 3.18
                            23 3.19  29 3.19  17 3.21  26 3.22
  15  0.320  0.330  0.312-  61 1.93  29 3.03   3 3.11  35 3.12  12 3.12  37 3.17   6 3.20  27 3.29
                            24 3.33  18 3.38
  16  0.333  0.667  0.000-  10 3.19  19 3.19   7 3.19  25 3.19   4 3.19  13 3.19  38 3.19  30 3.19
                            36 3.19
  17  0.333  0.669  0.158-  37 3.10  31 3.12  38 3.13  30 3.14  39 3.14  36 3.15  11 3.17  20 3.17
                             8 3.18   5 3.18  14 3.21  26 3.22
  18  0.325  0.681  0.330-  61 1.91  51 2.13   9 3.04  12 3.18  27 3.26  21 3.28   6 3.28  15 3.38
                            39 3.47  31 3.50
  19  0.667  0.000  0.000-  25 3.19  16 3.19   1 3.19  10 3.19   4 3.19  22 3.19  38 3.19  44 3.19
                            40 3.19
  20  0.666  0.999  0.158-  41 3.13  38 3.14  44 3.14  40 3.14  39 3.17  17 3.17   2 3.17  26 3.18
                            11 3.18   5 3.20  23 3.21  45 3.26
  21  0.671  0.011  0.314-  45 3.09   6 3.10  41 3.10  39 3.14  27 3.18  24 3.21   3 3.23  12 3.23
                            18 3.28
  22  0.667  0.333  0.000-  13 3.19   4 3.19  10 3.19  25 3.19   7 3.19  19 3.19  34 3.19  42 3.19
                            40 3.19
  23  0.667  0.336  0.159-  41 3.09  35 3.10  42 3.15  26 3.16  34 3.17   8 3.17  40 3.18  14 3.19
                             5 3.19  11 3.20  20 3.21  43 3.22
  24  0.665  0.338  0.332-  49 2.19  50 2.51   6 3.16  21 3.21  12 3.24  27 3.24  15 3.33   9 3.35
                            43 3.47  35 3.61  41 3.66
  25  0.667  0.667  0.000-   1 3.19  19 3.19   7 3.19  16 3.19  22 3.19  13 3.19  36 3.19  42 3.19
                            44 3.19
  26  0.669  0.668  0.158-  37 3.08  42 3.15  44 3.15   8 3.15   2 3.16  23 3.16  36 3.17  20 3.18
                            45 3.21  14 3.22  17 3.22  43 3.24
  27  0.661  0.674  0.321-  61 1.96  50 2.00  21 3.18  45 3.20   3 3.24  24 3.24  18 3.26  43 3.27
                            15 3.29   9 3.33  37 3.37
  28  0.111  0.222  0.080-  14 3.11   5 3.14   2 3.15  44 3.19  32 3.19  40 3.19  34 3.19  36 3.19
                            30 3.19   1 3.19  13 3.19   4 3.19
  29  0.106  0.221  0.236-  15 3.03   2 3.13   6 3.15   5 3.15  33 3.16  45 3.16  41 3.18  31 3.18
                            14 3.19  35 3.22  37 3.24   3 3.54
  30  0.111  0.556  0.080-   5 3.13  17 3.14   8 3.15  32 3.19  42 3.19  38 3.19  40 3.19  36 3.19
                            28 3.19  16 3.19   7 3.19   4 3.19
  31  0.116  0.559  0.236-   6 3.08   9 3.12  39 3.12  17 3.12  37 3.16   8 3.17   5 3.17  29 3.18
                            33 3.22  41 3.24  43 3.24  18 3.50
  32  0.111  0.889  0.080-  11 3.12   8 3.14   2 3.16  28 3.19  34 3.19  44 3.19  30 3.19  42 3.19
                            38 3.19  10 3.19   1 3.19   7 3.19
  33  0.110  0.892  0.235-  12 3.05   2 3.08   9 3.10   8 3.12  45 3.14  11 3.14  29 3.16  31 3.22
                            39 3.23  43 3.23  35 3.23   3 3.62
  34  0.444  0.222  0.080-  11 3.12  14 3.12  23 3.17  38 3.19  40 3.19  32 3.19  42 3.19  28 3.19
                            36 3.19  22 3.19  10 3.19  13 3.19
  35  0.447  0.230  0.236-  12 3.00  23 3.10  43 3.11  15 3.12  37 3.14  14 3.14  41 3.16  11 3.19
                            29 3.22  33 3.23  39 3.27  24 3.61
  36  0.444  0.556  0.080-  14 3.13  17 3.15  26 3.17  42 3.19  38 3.19  44 3.19  30 3.19  28 3.19
                            34 3.19  25 3.19  13 3.19  16 3.19
  37  0.446  0.558  0.234-  26 3.08  17 3.10  14 3.13  35 3.14  39 3.15  31 3.16  43 3.16  45 3.16
                            15 3.17  29 3.24  27 3.37
  38  0.444  0.889  0.080-  11 3.13  17 3.13  20 3.14  40 3.19  34 3.19  44 3.19  36 3.19  30 3.19
                            32 3.19  19 3.19  16 3.19  10 3.19
  39  0.444  0.885  0.237-  12 3.05  31 3.12  21 3.14  17 3.14  37 3.15  20 3.17  41 3.19  11 3.20
                            45 3.20  33 3.23  35 3.27  18 3.47
  40  0.778  0.222  0.080-   5 3.13  20 3.14  23 3.18  38 3.19  34 3.19  44 3.19  28 3.19  30 3.19
                            42 3.19   4 3.19  19 3.19  22 3.19
  41  0.774  0.223  0.235-   6 3.09  23 3.09  21 3.10  20 3.13   5 3.15  35 3.16  43 3.16  29 3.18
                            39 3.19  45 3.24  31 3.24  24 3.66
  42  0.778  0.556  0.080-   8 3.14  26 3.15  23 3.15  36 3.19  44 3.19  30 3.19  32 3.19  34 3.19
                            40 3.19  25 3.19   7 3.19  22 3.19
  43  0.774  0.553  0.241-   9 3.08  35 3.11  45 3.16  37 3.16  41 3.16  23 3.22  33 3.23  26 3.24
                            31 3.24  27 3.27   8 3.28  24 3.47
  44  0.778  0.889  0.080-  20 3.14  26 3.15   2 3.15  28 3.19  40 3.19  42 3.19  32 3.19  38 3.19
                            36 3.19   1 3.19  19 3.19  25 3.19
  45  0.779  0.886  0.240-  21 3.09  33 3.14  29 3.16  43 3.16  37 3.16  27 3.20  39 3.20  26 3.21
                             2 3.22  41 3.24  20 3.26   3 3.49
  46  0.002  0.000  0.396-  53 0.98  52 0.99   3 2.15
  47  0.301  0.970  0.412-  54 0.99  55 1.00
  48  0.887  0.218  0.416-  56 0.98  57 1.00
  49  0.607  0.287  0.397-  59 0.98  58 1.03  24 2.19
  50  0.684  0.570  0.372-  60 0.98  27 2.00  24 2.51
  51  0.359  0.708  0.394-  63 0.98  62 0.99  18 2.13
  52  0.970  0.072  0.410-  46 0.99
  53  0.096  0.007  0.410-  46 0.98
  54  0.398  0.078  0.409-  47 0.99
  55  0.260  0.941  0.384-  47 1.00
  56  0.984  0.325  0.418-  48 0.98
  57  0.862  0.205  0.386-  48 1.00
  58  0.629  0.404  0.397-  49 1.03
  59  0.693  0.283  0.412-  49 0.98
  60  0.782  0.647  0.387-  50 0.98
  61  0.427  0.552  0.329-  18 1.91  15 1.93  27 1.96
  62  0.355  0.802  0.407-  51 0.99
  63  0.454  0.708  0.405-  51 0.98
 
  LATTYP: Found a hexagonal cell.
 ALAT       =     9.5557527542
 C/A-ratio  =     3.4141837076
  
  Lattice vectors:
  
 A1 = (   9.5557527542,   0.0000000000,   0.0000000000)
 A2 = (  -4.7778763771,   8.2755246374,   0.0000000000)
 A3 = (   0.0000000000,   0.0000000000,  32.6250953674)


Analysis of symmetry for initial positions (statically):
=====================================================================
 Subroutine PRICEL returns:
 Original cell was already a primitive cell.
 

 Routine SETGRP: Setting up the symmetry group for a 
 hexagonal supercell.


 Subroutine GETGRP returns: Found  1 space group operations
 (whereof  1 operations were pure point group operations)
 out of a pool of 24 trial point group operations.


The static configuration has the point symmetry C_1 .


Analysis of symmetry for dynamics (positions and initial velocities):
=====================================================================
 Subroutine PRICEL returns:
 Original cell was already a primitive cell.
 

 Routine SETGRP: Setting up the symmetry group for a 
 hexagonal supercell.


 Subroutine GETGRP returns: Found  1 space group operations
 (whereof  1 operations were pure point group operations)
 out of a pool of 24 trial point group operations.


The dynamic configuration has the point symmetry C_1 .


Analysis of constrained symmetry for selective dynamics:
=====================================================================
 Subroutine PRICEL returns:
 Original cell was already a primitive cell.
 

 Routine SETGRP: Setting up the symmetry group for a 
 hexagonal supercell.


 Subroutine GETGRP returns: Found  1 space group operations
 (whereof  1 operations were pure point group operations)
 out of a pool of 24 trial point group operations.


The constrained configuration has the point symmetry C_1 .


 Subroutine INISYM returns: Found  1 space group operations
 (whereof  1 operations are pure point group operations),
 and found     1 'primitive' translations

 
 
 KPOINTS: Auto                                    

Automatic generation of k-mesh.
Space group operators:
 irot       det(A)        alpha          n_x          n_y          n_z        tau_x        tau_y        tau_z
    1     1.000000     0.000000     1.000000     0.000000     0.000000     0.000000     0.000000     0.000000
 
 Subroutine IBZKPT returns following result:
 ===========================================
 
 Found      5 irreducible k-points:
 
 Following reciprocal coordinates:
            Coordinates               Weight
  0.000000  0.000000  0.000000      1.000000
  0.333333 -0.000000  0.000000      2.000000
  0.000000  0.333333  0.000000      2.000000
  0.333333  0.333333  0.000000      2.000000
 -0.333333  0.333333  0.000000      2.000000
 
 Following cartesian coordinates:
            Coordinates               Weight
  0.000000  0.000000  0.000000      1.000000
  0.034883  0.020140  0.000000      2.000000
  0.000000  0.040279  0.000000      2.000000
  0.034883  0.060419  0.000000      2.000000
 -0.034883  0.020140  0.000000      2.000000
 
 TETIRR: Found     24 inequivalent tetrahedra from       54


--------------------------------------------------------------------------------------------------------




 Dimension of arrays:
   k-points           NKPTS =      5   k-points in BZ     NKDIM =      5   number of bands    NBANDS=    102
   number of dos      NEDOS =    301   number of ions     NIONS =     63
   non local maximal  LDIM  =      5   non local SUM 2l+1 LMDIM =     13
   total plane-waves  NPLWV = ******
   max r-space proj   IRMAX =   4509   max aug-charges    IRDMAX=  21536
   dimension x,y,z NGX =    72 NGY =   72 NGZ =  250
   dimension x,y,z NGXF=   144 NGYF=  144 NGZF=  500
   support grid    NGXF=   144 NGYF=  144 NGZF=  500
   ions per type =              45   6  12
   NGX,Y,Z   is equivalent  to a cutoff of  12.53, 12.53, 12.74 a.u.
   NGXF,Y,Z  is equivalent  to a cutoff of  25.05, 25.05, 25.48 a.u.

 SYSTEM =  Mg_slab_in_a_box                        
 POSCAR =  Mg   O    H                             

 Startparameter for this run:
   NWRITE =      2    write-flag & timer
   PREC   = accura    normal or accurate (medium, high low for compatibility)
   ISTART =      0    job   : 0-new  1-cont  2-samecut
   ICHARG =      2    charge: 1-file 2-atom 10-const
   ISPIN  =      1    spin polarized calculation?
   LNONCOLLINEAR =      F non collinear calculations
   LSORBIT =      F    spin-orbit coupling
   INIWAV =      1    electr: 0-lowe 1-rand  2-diag
   LASPH  =      T    aspherical Exc in radial PAW
   METAGGA=      F    non-selfconsistent MetaGGA calc.

 Electronic Relaxation 1
   ENCUT  =  520.0 eV  38.22 Ry    6.18 a.u.  17.77 17.77 60.66*2*pi/ulx,y,z
   ENINI  =  520.0     initial cutoff
   ENAUG  =  605.4 eV  augmentation charge cutoff
   NELM   =    300;   NELMIN=  6; NELMDL=-12     # of ELM steps 
   EDIFF  = 0.5E-05   stopping-criterion for ELM
   LREAL  =      T    real-space projection
   NLSPLINE    = F    spline interpolate recip. space projectors
   LCOMPAT=      F    compatible to vasp.4.4
   GGA_COMPAT  = T    GGA compatible to vasp.4.4-vasp.4.6
   LMAXPAW     = -100 max onsite density
   LMAXMIX     =    2 max onsite mixed and CHGCAR
   VOSKOWN=      0    Vosko Wilk Nusair interpolation
   ROPT   =   -0.00025  -0.00025  -0.00025
 Ionic relaxation
   EDIFFG = 0.5E-04   stopping-criterion for IOM
   NSW    =      0    number of steps for IOM
   NBLOCK =      1;   KBLOCK =      1    inner block; outer block 
   IBRION =     -1    ionic relax: 0-MD 1-quasi-New 2-CG
   NFREE  =      0    steps in history (QN), initial steepest desc. (CG)
   ISIF   =      2    stress and relaxation
   IWAVPR =     10    prediction:  0-non 1-charg 2-wave 3-comb
   ISYM   =      2    0-nonsym 1-usesym 2-fastsym
   LCORR  =      T    Harris-Foulkes like correction to forces

   POTIM  = 0.5000    time-step for ionic-motion
   TEIN   =    0.0    initial temperature
   TEBEG  =    0.0;   TEEND  =   0.0 temperature during run
   SMASS  =  -3.00    Nose mass-parameter (am)
   estimated Nose-frequenzy (Omega)   =  0.10E-29 period in steps =****** mass=  -0.209E-26a.u.
   SCALEE = 1.0000    scale energy and forces
   NPACO  =    256;   APACO  = 16.0  distance and # of slots for P.C.
   PSTRESS=    0.0 pullay stress

  Mass of Ions in am
   POMASS =  24.30 16.00  1.00
  Ionic Valenz
   ZVAL   =   2.00  6.00  1.00
  Atomic Wigner-Seitz radii
   RWIGS  =  -1.00 -1.00 -1.00
  virtual crystal weights 
   VCA    =   1.00  1.00  1.00
   NELECT =     138.0000    total number of electrons
   NUPDOWN=      -1.0000    fix difference up-down

 DOS related values:
   EMIN   =  10.00;   EMAX   =-10.00  energy-range for DOS
   EFERMI =   0.00
   ISMEAR =    -5;   SIGMA  =   0.20  broadening in eV -4-tet -1-fermi 0-gaus

 Electronic relaxation 2 (details)
   IALGO  =     48    algorithm
   LDIAG  =      T    sub-space diagonalisation (order eigenvalues)
   LSUBROT=      F    optimize rotation matrix (better conditioning)
   TURBO    =      0    0=normal 1=particle mesh
   IRESTART =      0    0=no restart 2=restart with 2 vectors
   NREBOOT  =      0    no. of reboots
   NMIN     =      0    reboot dimension
   EREF     =   0.00    reference energy to select bands
   IMIX   =      4    mixing-type and parameters
     AMIX     =   0.40;   BMIX     =  1.00
     AMIX_MAG =   1.60;   BMIX_MAG =  1.00
     AMIN     =   0.10
     WC   =   100.;   INIMIX=   1;  MIXPRE=   1;  MAXMIX= -45

 Intra band minimization:
   WEIMIN = 0.0000     energy-eigenvalue tresh-hold
   EBREAK =  0.12E-07  absolut break condition
   DEPER  =   0.30     relativ break condition  

   TIME   =   0.40     timestep for ELM

  volume/ion in A,a.u.               =      40.95       276.36
  Fermi-wavevector in a.u.,A,eV,Ry     =   0.616828  1.165635  5.176694  0.380476
  Thomas-Fermi vector in A             =   1.674695
 
 Write flags
   LWAVE        =      F    write WAVECAR
   LDOWNSAMPLE  =      F    k-point downsampling of WAVECAR
   LCHARG       =      T    write CHGCAR
   LVTOT        =      F    write LOCPOT, total local potential
   LVHAR        =      T    write LOCPOT, Hartree potential only
   LELF         =      F    write electronic localiz. function (ELF)
   LORBIT       =      0    0 simple, 1 ext, 2 COOP (PROOUT), +10 PAW based schemes


 Dipole corrections
   LMONO  =      F    monopole corrections only (constant potential shift)
   LDIPOL =      T    correct potential (dipole corrections)
   IDIPOL =      3    1-x, 2-y, 3-z, 4-all directions 
   EPSILON=  1.0000000 bulk dielectric constant

 Exchange correlation treatment:
   GGA     =    BO    GGA type
   LEXCH   =    42    internal setting for exchange type
   VOSKOWN=      0    Vosko Wilk Nusair interpolation
   LHFCALC =     F    Hartree Fock is set to
   LHFONE  =     F    Hartree Fock one center treatment
   AEXX    =    0.0000 exact exchange contribution

 vdW DFT:
   LUSE_VDW   =     T    switch on vdW DFT
   Zab_VDW    =-.8491    correlation parameter
   PARAM1     =0.1833
   PARAM2     =0.2200
   PARAM3     =0.0000
   -- rVV10 --
   BPARAM     = 6.3000
   CPARAM     = 0.0093

 Linear response parameters
   LEPSILON=     F    determine dielectric tensor
   LRPA    =     F    only Hartree local field effects (RPA)
   LNABLA  =     F    use nabla operator in PAW spheres
   LVEL    =     F    velocity operator in full k-point grid
   LINTERFAST=   F  fast interpolation
   KINTER  =     0    interpolate to denser k-point grid
   CSHIFT  =0.1000    complex shift for real part using Kramers Kronig
   OMEGAMAX=  -1.0    maximum frequency
   DEG_THRESHOLD= 0.2000000E-02 threshold for treating states as degnerate
   RTIME   =   -0.100 relaxation time in fs
  (WPLASMAI=    0.000 imaginary part of plasma frequency in eV, 0.658/RTIME)
   DFIELD  = 0.0000000 0.0000000 0.0000000 field for delta impulse in time
 
 Orbital magnetization related:
   ORBITALMAG=     F  switch on orbital magnetization
   LCHIMAG   =     F  perturbation theory with respect to B field
   DQ        =  0.001000  dq finite difference perturbation B field
   LLRAUG    =     F  two centre corrections for induced B field



--------------------------------------------------------------------------------------------------------


 Static calculation
 charge density and potential will be updated during run
 non-spin polarized calculation
 RMM-DIIS sequential band-by-band
 perform sub-space diagonalisation
    before iterative eigenvector-optimisation
 modified Broyden-mixing scheme, WC =      100.0
 initial mixing is a Kerker type mixing with AMIX =  0.4000 and BMIX =      1.0000
 Hartree-type preconditioning will be used
 using additional bands           33
 real space projection scheme for non local part
 use partial core corrections
 calculate Harris-corrections to forces 
   (improved forces if not selfconsistent)
 use gradient corrections 
 use of overlap-Matrix (Vanderbilt PP)
 Fermi weights with tetrahedron method with Bloechl corrections


--------------------------------------------------------------------------------------------------------


  energy-cutoff  :      520.00
  volume of cell :     2579.96
      direct lattice vectors                 reciprocal lattice vectors
     9.555752754  0.000000000  0.000000000     0.104649003  0.060419130  0.000000000
    -4.777876377  8.275524637  0.000000000     0.000000000  0.120838260  0.000000000
     0.000000000  0.000000000 32.625095367     0.000000000  0.000000000  0.030651251

  length of vectors
     9.555752754  9.555752754 32.625095367     0.120838260  0.120838260  0.030651251


 
 k-points in units of 2pi/SCALE and weight: Auto                                    
   0.00000000  0.00000000  0.00000000       0.111
   0.03488300  0.02013971  0.00000000       0.222
   0.00000000  0.04027942  0.00000000       0.222
   0.03488300  0.06041913  0.00000000       0.222
  -0.03488300  0.02013971  0.00000000       0.222
 
 k-points in reciprocal lattice and weights: Auto                                    
   0.00000000  0.00000000  0.00000000       0.111
   0.33333333 -0.00000000  0.00000000       0.222
   0.00000000  0.33333333  0.00000000       0.222
   0.33333333  0.33333333  0.00000000       0.222
  -0.33333333  0.33333333  0.00000000       0.222
 
 position of ions in fractional coordinates (direct lattice) 
   0.00000000  0.00000000  0.00000000
   0.99889387  0.00045461  0.15828884
   0.00250617  0.00738088  0.33035564
   0.00000001  0.33333336  0.00000000
   0.00026992  0.33448171  0.15755208
   0.99016886  0.33984115  0.31234616
   0.00000002  0.66666672  0.00000000
   0.99921000  0.66775925  0.15798526
   0.01228353  0.68059014  0.31301830
   0.33333334  0.00000000  0.00000000
   0.33339097  0.00038441  0.15720674
   0.33332827  0.01052602  0.30896950
   0.33333335  0.33333336  0.00000000
   0.33151571  0.33216131  0.15704984
   0.31969338  0.32965556  0.31182887
   0.33333336  0.66666672  0.00000000
   0.33260130  0.66852777  0.15789708
   0.32507412  0.68076208  0.32961120
   0.66666668  0.00000000  0.00000000
   0.66603098  0.99921199  0.15781361
   0.67149317  0.01082301  0.31376960
   0.66666668  0.33333336  0.00000000
   0.66681009  0.33578940  0.15878930
   0.66518458  0.33828249  0.33175090
   0.66666670  0.66666672  0.00000000
   0.66942920  0.66804371  0.15827905
   0.66139619  0.67395227  0.32149446
   0.11111113  0.22222222  0.07982145
   0.10564969  0.22058646  0.23646198
   0.11111114  0.55555561  0.07982145
   0.11642507  0.55911023  0.23636570
   0.11111116  0.88888894  0.07982145
   0.10951918  0.89230976  0.23481120
   0.44444450  0.22222222  0.07982145
   0.44749838  0.23002171  0.23579561
   0.44444450  0.55555561  0.07982145
   0.44647019  0.55776378  0.23394085
   0.44444451  0.88888894  0.07982145
   0.44364825  0.88546241  0.23692226
   0.77777779  0.22222222  0.07982145
   0.77409390  0.22254811  0.23525176
   0.77777781  0.55555561  0.07982145
   0.77427179  0.55324904  0.24059318
   0.77777784  0.88888894  0.07982145
   0.77877239  0.88631934  0.23967947
   0.00234391  0.00025774  0.39610915
   0.30138411  0.97005033  0.41240017
   0.88668951  0.21750993  0.41606358
   0.60682661  0.28716515  0.39678647
   0.68419971  0.57024670  0.37228630
   0.35898661  0.70839306  0.39436290
   0.96967205  0.07163503  0.41006243
   0.09632977  0.00726479  0.41041144
   0.39846604  0.07809152  0.40944366
   0.26011565  0.94122878  0.38383198
   0.98355715  0.32462053  0.41780459
   0.86198442  0.20504449  0.38601867
   0.62922560  0.40409130  0.39696085
   0.69306976  0.28308081  0.41218824
   0.78211140  0.64730545  0.38698038
   0.42704986  0.55207304  0.32923667
   0.35537716  0.80187692  0.40655527
   0.45440951  0.70823401  0.40511558
 
 position of ions in cartesian coordinates  (Angst):
   0.00000000  0.00000000  0.00000000
   9.54301079  0.00376215  5.16418841
  -0.01131655  0.06108066 10.77788437
  -1.59262550  2.75850844  0.00000000
  -1.59553294  2.76801161  5.14015160
   7.83808981  2.81236382 10.19032320
  -3.18525100  5.51701689  0.00000000
   6.35773252  5.52605812  5.15428431
  -3.13439716  5.63224045 10.21225193
   3.18525100  0.00000000  0.00000000
   3.18396497  0.00318123  5.12888504
   3.13491052  0.08710831 10.08015954
   1.59262550  2.75850844  0.00000000
   1.58085648  2.74880911  5.12376588
   1.47985734  2.72807270 10.17344648
  -0.00000001  5.51701689  0.00000000
  -0.01588729  5.53241807  5.15140728
  -0.14626918  5.63366335 10.75359689
   6.37050200  0.00000000  0.00000000
   1.59031602  8.26900347  5.14868402
   6.36491172  0.08956606 10.23676315
   4.77787638  2.75850844  0.00000000
   4.76751208  2.77883344  5.18051601
   4.74006746  2.79946508 10.82340471
   3.18525100  5.51701689  0.00000000
   3.20506962  5.52841218  5.16386914
   3.10007786  5.57730864 10.48878752
   0.00000017  1.83900547  2.60418248
  -0.04437251  1.82546866  7.71459475
  -1.59262550  4.59751415  2.60418248
  -1.55883035  4.62693047  7.71145357
  -3.18525076  7.35602236  2.60418248
  -3.21680752  7.38433141  7.66073781
   3.18525147  1.83900547  2.60418248
   3.17716855  1.90355035  7.69285427
   1.59262574  4.59751415  2.60418248
   1.60143240  4.61578788  7.63234248
   0.00000039  7.35602236  2.60418248
   0.00876311  7.32766597  7.72961143
   6.37050200  1.83900547  2.60418248
   6.33374253  1.84170237  7.67511117
   4.77787638  4.59751415  2.60418248
   4.75539423  4.57842607  7.84937542
   3.18525124  7.35602236  2.60418248
   3.20703221  7.33475753  7.81956547
   0.02116644  0.00213290 12.92309891
  -1.75482849  8.02767536 13.45459496
   7.43375018  1.80000878 13.57411397
   4.42664549  2.37644231 12.94519629
   3.81347502  4.71909064 12.14587594
   0.04577286  5.86232420 12.86612733
   8.92368301  0.59281746 13.37832598
   0.88579320  0.06011998 13.38971239
   3.43453127  0.64624833 13.35813834
  -2.01147392  7.78916198 12.52255502
   7.84763217  2.68640518 13.63091453
   7.25723274  1.69685072 12.59389594
   4.08202596  3.34406750 12.95088560
   5.27027814  2.34264224 13.44768071
   4.38091775  5.35679224 12.62527176
   1.44304615  4.56869403 10.74137789
  -0.43537248  6.63595221 13.26390460
   0.95837042  5.86100800 13.21693457
 


--------------------------------------------------------------------------------------------------------


 k-point  1 :   0.0000 0.0000 0.0000  plane waves:   69403
 k-point  2 :   0.3333-0.0000 0.0000  plane waves:   69509
 k-point  3 :   0.0000 0.3333 0.0000  plane waves:   69509
 k-point  4 :   0.3333 0.3333 0.0000  plane waves:   69474
 k-point  5 :  -0.3333 0.3333 0.0000  plane waves:   69509

 maximum and minimum number of plane-waves per node :      2924     2870

 maximum number of plane-waves:     69509
 maximum index in each direction: 
   IXMAX=   18   IYMAX=   17   IZMAX=   60
   IXMIN=  -18   IYMIN=  -18   IZMIN=  -60


 real space projection operators:
  total allocation   :      22586.78 KBytes
  max/ min on nodes  :       1313.77        528.80


 parallel 3D FFT for wavefunctions:
    minimum data exchange during FFTs selected (reduces bandwidth)
 parallel 3D FFT for charge:
    minimum data exchange during FFTs selected (reduces bandwidth)


 total amount of memory used by VASP MPI-rank0    62209. kBytes
=======================================================================

   base      :      30000. kBytes
   nonlr-proj:       6306. kBytes
   fftplans  :       6459. kBytes
   grid      :      11407. kBytes
   one-center:         24. kBytes
   wavefun   :       8013. kBytes
 
     INWAV:  cpu time    0.0002: real time    0.0035
 Broyden mixing: mesh for mixing (old mesh)
   NGX = 35   NGY = 35   NGZ =121
  (NGX  =144   NGY  =144   NGZ  =500)
  gives a total of 148225 points

 initial charge density was supplied:
 charge density of overlapping atoms calculated
 number of electron     138.0000000 magnetization 
 keeping initial charge density in first step


--------------------------------------------------------------------------------------------------------


 Maximum index for non-local projection operator          300
 Maximum index for augmentation-charges          837 (set IRDMAX)


--------------------------------------------------------------------------------------------------------


 First call to EWALD:  gamma=   0.129
 Maximum number of real-space cells 4x 4x 1
 Maximum number of reciprocal cells 2x 2x 6

    FEWALD:  cpu time    0.0026: real time    0.0026


--------------------------------------- Iteration      1(   1)  ---------------------------------------


vdW kernel read from vdw_kernel.bindat
  0.0000  0.2424  0.5071  0.7962  1.1119  1.4567  1.8333  2.2446  2.6937  3.1842
  3.7199  4.3049  4.9438  5.6415  6.4036  7.2358  8.1446  9.1372 10.2212 11.4050
 12.6979 14.1099 15.6519 17.3360 19.1751 21.1837 23.3773 25.7729 28.3892 31.2465
 34.3669 37.7748 41.4965 45.5611 50.0000
 
    POTLOK:  cpu time    5.3637: real time    5.5258
    SETDIJ:  cpu time    0.1354: real time    0.1355
    EDDIAG:  cpu time    0.4852: real time    0.4862
  RMM-DIIS:  cpu time    1.0540: real time    1.0562
    ORTHCH:  cpu time    0.0709: real time    0.0709
 BZINTS: Fermi energy:  9.552815;138.000000 electrons
         Band energy: 213.491610;  BLOECHL correction: -0.139243
       DOS:  cpu time    0.0029: real time    0.0029
    --------------------------------------------
      LOOP:  cpu time    7.1121: real time    7.2774

 eigenvalue-minimisations  :   510
 total energy-change (2. order) : 0.1243661E+04  (-0.2794434E+04)
 number of electron     138.0000000 magnetization 
 augmentation part      138.0000000 magnetization 

 DIPCOR: dipole corrections for dipol
 direction  3 min pos   365,
 dipolmoment           0.000000      0.000000     -0.000309 electrons x Angstroem
 Tr[quadrupol]     -1884.033392

 energy correction for charged system         0.000000 eV
 dipol+quadrupol energy correction           -0.000000 eV
 added-field ion interaction          0.001347 eV  (added to PSCEN)


 Free energy of the ion-electron system (eV)
  ---------------------------------------------------
  alpha Z        PSCENC =        63.16241019
  Ewald energy   TEWEN  =     13036.10033751
  -Hartree energ DENC   =    -16262.25307722
  -exchange      EXHF   =         0.00000000
  -V(xc)+E(xc)   XCENC  =     -2050.97334793
  PAW double counting   =      5135.15659847    -2719.01140655
  entropy T*S    EENTRO =         0.00000000
  eigenvalues    EBANDS =       213.49161002
  atomic energy  EATOM  =      3827.98814510
  Solvation  Ediel_sol  =         0.00000000
  ---------------------------------------------------
  free energy    TOTEN  =      1243.66126959 eV

  energy without entropy =     1243.66126959  energy(sigma->0) =     1243.66126959


--------------------------------------------------------------------------------------------------------




--------------------------------------- Iteration      1(   2)  ---------------------------------------


    EDDIAG:  cpu time    0.4956: real time    0.5131
  RMM-DIIS:  cpu time    1.0532: real time    1.0538
    ORTHCH:  cpu time    0.0717: real time    0.0717
 BZINTS: Fermi energy:  2.157037;138.000000 electrons
         Band energy:-484.628475;  BLOECHL correction: -0.213569
       DOS:  cpu time    0.0029: real time    0.0029
    --------------------------------------------
      LOOP:  cpu time    1.6234: real time    1.6415

 eigenvalue-minimisations  :   510
 total energy-change (2. order) :-0.6981201E+03  (-0.7578125E+03)
 number of electron     138.0000000 magnetization 
 augmentation part      138.0000000 magnetization 

 DIPCOR: dipole corrections for dipol
 direction  3 min pos   365,
 dipolmoment           0.000000      0.000000     -0.000309 electrons x Angstroem
 Tr[quadrupol]     -1884.033392

 energy correction for charged system         0.000000 eV
 dipol+quadrupol energy correction           -0.000000 eV
 added-field ion interaction          0.001347 eV  (added to PSCEN)


 Free energy of the ion-electron system (eV)
  ---------------------------------------------------
  alpha Z        PSCENC =        63.16241019
  Ewald energy   TEWEN  =     13036.10033751
  -Hartree energ DENC   =    -16262.25307722
  -exchange      EXHF   =         0.00000000
  -V(xc)+E(xc)   XCENC  =     -2050.97334793
  PAW double counting   =      5135.15659847    -2719.01140655
  entropy T*S    EENTRO =         0.00000000
  eigenvalues    EBANDS =      -484.62847476
  atomic energy  EATOM  =      3827.98814510
  Solvation  Ediel_sol  =         0.00000000
  ---------------------------------------------------
  free energy    TOTEN  =       545.54118481 eV

  energy without entropy =      545.54118481  energy(sigma->0) =      545.54118481


--------------------------------------------------------------------------------------------------------




--------------------------------------- Iteration      1(   3)  ---------------------------------------


    EDDIAG:  cpu time    0.4926: real time    0.5085
  RMM-DIIS:  cpu time    1.0530: real time    1.0534
    ORTHCH:  cpu time    0.0718: real time    0.0718
 BZINTS: Fermi energy:  0.353700;138.000000 electrons
         Band energy:-719.856673;  BLOECHL correction: -0.196189
       DOS:  cpu time    0.0028: real time    0.0028
    --------------------------------------------
      LOOP:  cpu time    1.6202: real time    1.6365

 eigenvalue-minimisations  :   510
 total energy-change (2. order) :-0.2352282E+03  (-0.3001724E+03)
 number of electron     138.0000000 magnetization 
 augmentation part      138.0000000 magnetization 

 DIPCOR: dipole corrections for dipol
 direction  3 min pos   365,
 dipolmoment           0.000000      0.000000     -0.000309 electrons x Angstroem
 Tr[quadrupol]     -1884.033392

 energy correction for charged system         0.000000 eV
 dipol+quadrupol energy correction           -0.000000 eV
 added-field ion interaction          0.001347 eV  (added to PSCEN)


 Free energy of the ion-electron system (eV)
  ---------------------------------------------------
  alpha Z        PSCENC =        63.16241019
  Ewald energy   TEWEN  =     13036.10033751
  -Hartree energ DENC   =    -16262.25307722
  -exchange      EXHF   =         0.00000000
  -V(xc)+E(xc)   XCENC  =     -2050.97334793
  PAW double counting   =      5135.15659847    -2719.01140655
  entropy T*S    EENTRO =         0.00000000
  eigenvalues    EBANDS =      -719.85667318
  atomic energy  EATOM  =      3827.98814510
  Solvation  Ediel_sol  =         0.00000000
  ---------------------------------------------------
  free energy    TOTEN  =       310.31298639 eV

  energy without entropy =      310.31298639  energy(sigma->0) =      310.31298639


--------------------------------------------------------------------------------------------------------




--------------------------------------- Iteration      1(   4)  ---------------------------------------


    EDDIAG:  cpu time    0.4895: real time    0.5133
  RMM-DIIS:  cpu time    1.0466: real time    1.0470
    ORTHCH:  cpu time    0.0711: real time    0.0711
 BZINTS: Fermi energy: -0.677215;138.000000 electrons
         Band energy:-892.134943;  BLOECHL correction: -0.165579
       DOS:  cpu time    0.0030: real time    0.0030
    --------------------------------------------
      LOOP:  cpu time    1.6102: real time    1.6344

 eigenvalue-minimisations  :   510
 total energy-change (2. order) :-0.1722783E+03  (-0.1483122E+03)
 number of electron     138.0000000 magnetization 
 augmentation part      138.0000000 magnetization 

 DIPCOR: dipole corrections for dipol
 direction  3 min pos   365,
 dipolmoment           0.000000      0.000000     -0.000309 electrons x Angstroem
 Tr[quadrupol]     -1884.033392

 energy correction for charged system         0.000000 eV
 dipol+quadrupol energy correction           -0.000000 eV
 added-field ion interaction          0.001347 eV  (added to PSCEN)


 Free energy of the ion-electron system (eV)
  ---------------------------------------------------
  alpha Z        PSCENC =        63.16241019
  Ewald energy   TEWEN  =     13036.10033751
  -Hartree energ DENC   =    -16262.25307722
  -exchange      EXHF   =         0.00000000
  -V(xc)+E(xc)   XCENC  =     -2050.97334793
  PAW double counting   =      5135.15659847    -2719.01140655
  entropy T*S    EENTRO =         0.00000000
  eigenvalues    EBANDS =      -892.13494329
  atomic energy  EATOM  =      3827.98814510
  Solvation  Ediel_sol  =         0.00000000
  ---------------------------------------------------
  free energy    TOTEN  =       138.03471628 eV

  energy without entropy =      138.03471628  energy(sigma->0) =      138.03471628


--------------------------------------------------------------------------------------------------------




--------------------------------------- Iteration      1(   5)  ---------------------------------------


    EDDIAG:  cpu time    0.4906: real time    0.5144
  RMM-DIIS:  cpu time    1.0526: real time    1.0531
    ORTHCH:  cpu time    0.0710: real time    0.0710
 BZINTS: Fermi energy: -1.281313;138.000000 electrons
         Band energy:***********;  BLOECHL correction: -0.167883
       DOS:  cpu time    0.0030: real time    0.0030
    --------------------------------------------
      LOOP:  cpu time    1.6172: real time    1.6415

 eigenvalue-minimisations  :   510
 total energy-change (2. order) :-0.1155062E+03  (-0.9178119E+02)
 number of electron     138.0000000 magnetization 
 augmentation part      138.0000000 magnetization 

 DIPCOR: dipole corrections for dipol
 direction  3 min pos   365,
 dipolmoment           0.000000      0.000000     -0.000309 electrons x Angstroem
 Tr[quadrupol]     -1884.033392

 energy correction for charged system         0.000000 eV
 dipol+quadrupol energy correction           -0.000000 eV
 added-field ion interaction          0.001347 eV  (added to PSCEN)


 Free energy of the ion-electron system (eV)
  ---------------------------------------------------
  alpha Z        PSCENC =        63.16241019
  Ewald energy   TEWEN  =     13036.10033751
  -Hartree energ DENC   =    -16262.25307722
  -exchange      EXHF   =         0.00000000
  -V(xc)+E(xc)   XCENC  =     -2050.97334793
  PAW double counting   =      5135.15659847    -2719.01140655
  entropy T*S    EENTRO =         0.00000000
  eigenvalues    EBANDS =     -1007.64114771
  atomic energy  EATOM  =      3827.98814510
  Solvation  Ediel_sol  =         0.00000000
  ---------------------------------------------------
  free energy    TOTEN  =        22.52851187 eV

  energy without entropy =       22.52851187  energy(sigma->0) =       22.52851187


--------------------------------------------------------------------------------------------------------




--------------------------------------- Iteration      1(   6)  ---------------------------------------


    EDDIAG:  cpu time    0.4938: real time    0.5170
  RMM-DIIS:  cpu time    1.0561: real time    1.0565
    ORTHCH:  cpu time    0.0731: real time    0.0732
 BZINTS: Fermi energy: -1.370421;138.000000 electrons
         Band energy:***********;  BLOECHL correction: -0.064554
       DOS:  cpu time    0.0027: real time    0.0027
    --------------------------------------------
      LOOP:  cpu time    1.6257: real time    1.6494

 eigenvalue-minimisations  :   510
 total energy-change (2. order) :-0.6485778E+02  (-0.4898509E+02)
 number of electron     138.0000000 magnetization 
 augmentation part      138.0000000 magnetization 

 DIPCOR: dipole corrections for dipol
 direction  3 min pos   365,
 dipolmoment           0.000000      0.000000     -0.000309 electrons x Angstroem
 Tr[quadrupol]     -1884.033392

 energy correction for charged system         0.000000 eV
 dipol+quadrupol energy correction           -0.000000 eV
 added-field ion interaction          0.001347 eV  (added to PSCEN)


 Free energy of the ion-electron system (eV)
  ---------------------------------------------------
  alpha Z        PSCENC =        63.16241019
  Ewald energy   TEWEN  =     13036.10033751
  -Hartree energ DENC   =    -16262.25307722
  -exchange      EXHF   =         0.00000000
  -V(xc)+E(xc)   XCENC  =     -2050.97334793
  PAW double counting   =      5135.15659847    -2719.01140655
  entropy T*S    EENTRO =         0.00000000
  eigenvalues    EBANDS =     -1072.49892450
  atomic energy  EATOM  =      3827.98814510
  Solvation  Ediel_sol  =         0.00000000
  ---------------------------------------------------
  free energy    TOTEN  =       -42.32926493 eV

  energy without entropy =      -42.32926493  energy(sigma->0) =      -42.32926493


--------------------------------------------------------------------------------------------------------




--------------------------------------- Iteration      1(   7)  ---------------------------------------


    EDDIAG:  cpu time    0.4884: real time    0.5129
  RMM-DIIS:  cpu time    1.0578: real time    1.0583
    ORTHCH:  cpu time    0.0692: real time    0.0709
 BZINTS: Fermi energy: -1.423298;138.000000 electrons
         Band energy:***********;  BLOECHL correction: -0.061944
       DOS:  cpu time    0.0031: real time    0.0031
    --------------------------------------------
      LOOP:  cpu time    1.6185: real time    1.6452

 eigenvalue-minimisations  :   510
 total energy-change (2. order) :-0.2795068E+02  (-0.2095385E+02)
 number of electron     138.0000000 magnetization 
 augmentation part      138.0000000 magnetization 

 DIPCOR: dipole corrections for dipol
 direction  3 min pos   365,
 dipolmoment           0.000000      0.000000     -0.000309 electrons x Angstroem
 Tr[quadrupol]     -1884.033392

 energy correction for charged system         0.000000 eV
 dipol+quadrupol energy correction           -0.000000 eV
 added-field ion interaction          0.001347 eV  (added to PSCEN)


 Free energy of the ion-electron system (eV)
  ---------------------------------------------------
  alpha Z        PSCENC =        63.16241019
  Ewald energy   TEWEN  =     13036.10033751
  -Hartree energ DENC   =    -16262.25307722
  -exchange      EXHF   =         0.00000000
  -V(xc)+E(xc)   XCENC  =     -2050.97334793
  PAW double counting   =      5135.15659847    -2719.01140655
  entropy T*S    EENTRO =         0.00000000
  eigenvalues    EBANDS =     -1100.44960546
  atomic energy  EATOM  =      3827.98814510
  Solvation  Ediel_sol  =         0.00000000
  ---------------------------------------------------
  free energy    TOTEN  =       -70.27994589 eV

  energy without entropy =      -70.27994589  energy(sigma->0) =      -70.27994589


--------------------------------------------------------------------------------------------------------




--------------------------------------- Iteration      1(   8)  ---------------------------------------


    EDDIAG:  cpu time    0.4867: real time    0.5127
  RMM-DIIS:  cpu time    1.0499: real time    1.0503
    ORTHCH:  cpu time    0.0710: real time    0.0710
 BZINTS: Fermi energy: -1.465014;138.000000 electrons
         Band energy:***********;  BLOECHL correction: -0.073236
       DOS:  cpu time    0.0030: real time    0.0030
    --------------------------------------------
      LOOP:  cpu time    1.6105: real time    1.6369

 eigenvalue-minimisations  :   510
 total energy-change (2. order) :-0.7665348E+01  (-0.6228837E+01)
 number of electron     138.0000000 magnetization 
 augmentation part      138.0000000 magnetization 

 DIPCOR: dipole corrections for dipol
 direction  3 min pos   365,
 dipolmoment           0.000000      0.000000     -0.000309 electrons x Angstroem
 Tr[quadrupol]     -1884.033392

 energy correction for charged system         0.000000 eV
 dipol+quadrupol energy correction           -0.000000 eV
 added-field ion interaction          0.001347 eV  (added to PSCEN)


 Free energy of the ion-electron system (eV)
  ---------------------------------------------------
  alpha Z        PSCENC =        63.16241019
  Ewald energy   TEWEN  =     13036.10033751
  -Hartree energ DENC   =    -16262.25307722
  -exchange      EXHF   =         0.00000000
  -V(xc)+E(xc)   XCENC  =     -2050.97334793
  PAW double counting   =      5135.15659847    -2719.01140655
  entropy T*S    EENTRO =         0.00000000
  eigenvalues    EBANDS =     -1108.11495314
  atomic energy  EATOM  =      3827.98814510
  Solvation  Ediel_sol  =         0.00000000
  ---------------------------------------------------
  free energy    TOTEN  =       -77.94529357 eV

  energy without entropy =      -77.94529357  energy(sigma->0) =      -77.94529357


--------------------------------------------------------------------------------------------------------




--------------------------------------- Iteration      1(   9)  ---------------------------------------


    EDDIAG:  cpu time    0.4924: real time    0.5091
  RMM-DIIS:  cpu time    2.6911: real time    2.6924
    ORTHCH:  cpu time    0.0717: real time    0.0718
 BZINTS: Fermi energy: -1.501055;138.000000 electrons
         Band energy:***********;  BLOECHL correction: -0.072703
       DOS:  cpu time    0.0029: real time    0.0029
    --------------------------------------------
      LOOP:  cpu time    3.2581: real time    3.2761

 eigenvalue-minimisations  :  1468
 total energy-change (2. order) :-0.2322390E+01  (-0.2221128E+01)
 number of electron     138.0000000 magnetization 
 augmentation part      138.0000000 magnetization 

 DIPCOR: dipole corrections for dipol
 direction  3 min pos   365,
 dipolmoment           0.000000      0.000000     -0.000309 electrons x Angstroem
 Tr[quadrupol]     -1884.033392

 energy correction for charged system         0.000000 eV
 dipol+quadrupol energy correction           -0.000000 eV
 added-field ion interaction          0.001347 eV  (added to PSCEN)


 Free energy of the ion-electron system (eV)
  ---------------------------------------------------
  alpha Z        PSCENC =        63.16241019
  Ewald energy   TEWEN  =     13036.10033751
  -Hartree energ DENC   =    -16262.25307722
  -exchange      EXHF   =         0.00000000
  -V(xc)+E(xc)   XCENC  =     -2050.97334793
  PAW double counting   =      5135.15659847    -2719.01140655
  entropy T*S    EENTRO =         0.00000000
  eigenvalues    EBANDS =     -1110.43734304
  atomic energy  EATOM  =      3827.98814510
  Solvation  Ediel_sol  =         0.00000000
  ---------------------------------------------------
  free energy    TOTEN  =       -80.26768346 eV

  energy without entropy =      -80.26768346  energy(sigma->0) =      -80.26768346


--------------------------------------------------------------------------------------------------------




--------------------------------------- Iteration      1(  10)  ---------------------------------------


    EDDIAG:  cpu time    0.5359: real time    0.5572
  RMM-DIIS:  cpu time    3.2562: real time    3.2576
    ORTHCH:  cpu time    0.0715: real time    0.0715
 BZINTS: Fermi energy: -1.503501;138.000000 electrons
         Band energy:***********;  BLOECHL correction: -0.072480
       DOS:  cpu time    0.0030: real time    0.0030
    --------------------------------------------
      LOOP:  cpu time    3.8666: real time    3.8893

 eigenvalue-minimisations  :  1744
 total energy-change (2. order) :-0.2986019E+00  (-0.3158220E+00)
 number of electron     138.0000000 magnetization 
 augmentation part      138.0000000 magnetization 

 DIPCOR: dipole corrections for dipol
 direction  3 min pos   365,
 dipolmoment           0.000000      0.000000     -0.000309 electrons x Angstroem
 Tr[quadrupol]     -1884.033392

 energy correction for charged system         0.000000 eV
 dipol+quadrupol energy correction           -0.000000 eV
 added-field ion interaction          0.001347 eV  (added to PSCEN)


 Free energy of the ion-electron system (eV)
  ---------------------------------------------------
  alpha Z        PSCENC =        63.16241019
  Ewald energy   TEWEN  =     13036.10033751
  -Hartree energ DENC   =    -16262.25307722
  -exchange      EXHF   =         0.00000000
  -V(xc)+E(xc)   XCENC  =     -2050.97334793
  PAW double counting   =      5135.15659847    -2719.01140655
  entropy T*S    EENTRO =         0.00000000
  eigenvalues    EBANDS =     -1110.73594494
  atomic energy  EATOM  =      3827.98814510
  Solvation  Ediel_sol  =         0.00000000
  ---------------------------------------------------
  free energy    TOTEN  =       -80.56628537 eV

  energy without entropy =      -80.56628537  energy(sigma->0) =      -80.56628537


--------------------------------------------------------------------------------------------------------




--------------------------------------- Iteration      1(  11)  ---------------------------------------


    EDDIAG:  cpu time    0.4925: real time    0.5126
  RMM-DIIS:  cpu time    3.1194: real time    3.1227
    ORTHCH:  cpu time    0.0713: real time    0.0713
 BZINTS: Fermi energy: -1.504119;138.000000 electrons
         Band energy:***********;  BLOECHL correction: -0.072306
       DOS:  cpu time    0.0029: real time    0.0029
    --------------------------------------------
      LOOP:  cpu time    3.6862: real time    3.7095

 eigenvalue-minimisations  :  1711
 total energy-change (2. order) : 0.1155417E-02  (-0.1672858E-01)
 number of electron     138.0000000 magnetization 
 augmentation part      138.0000000 magnetization 

 DIPCOR: dipole corrections for dipol
 direction  3 min pos   365,
 dipolmoment           0.000000      0.000000     -0.000309 electrons x Angstroem
 Tr[quadrupol]     -1884.033392

 energy correction for charged system         0.000000 eV
 dipol+quadrupol energy correction           -0.000000 eV
 added-field ion interaction          0.001347 eV  (added to PSCEN)


 Free energy of the ion-electron system (eV)
  ---------------------------------------------------
  alpha Z        PSCENC =        63.16241019
  Ewald energy   TEWEN  =     13036.10033751
  -Hartree energ DENC   =    -16262.25307722
  -exchange      EXHF   =         0.00000000
  -V(xc)+E(xc)   XCENC  =     -2050.97334793
  PAW double counting   =      5135.15659847    -2719.01140655
  entropy T*S    EENTRO =         0.00000000
  eigenvalues    EBANDS =     -1110.73478953
  atomic energy  EATOM  =      3827.98814510
  Solvation  Ediel_sol  =         0.00000000
  ---------------------------------------------------
  free energy    TOTEN  =       -80.56512995 eV

  energy without entropy =      -80.56512995  energy(sigma->0) =      -80.56512995


--------------------------------------------------------------------------------------------------------




--------------------------------------- Iteration      1(  12)  ---------------------------------------


    EDDIAG:  cpu time    0.4955: real time    0.5115
  RMM-DIIS:  cpu time    3.2728: real time    3.2745
    ORTHCH:  cpu time    0.0700: real time    0.0700
 BZINTS: Fermi energy: -1.504205;138.000000 electrons
         Band energy:***********;  BLOECHL correction: -0.072302
       DOS:  cpu time    0.0028: real time    0.0028
    CHARGE:  cpu time    0.1305: real time    0.1306
    MIXING:  cpu time    0.0039: real time    0.0040
    --------------------------------------------
      LOOP:  cpu time    3.9757: real time    3.9935

 eigenvalue-minimisations  :  1801
 total energy-change (2. order) :-0.2405545E-02  (-0.3302862E-02)
 number of electron     138.0000008 magnetization 
 augmentation part        5.2606773 magnetization 

 DIPCOR: dipole corrections for dipol
 direction  3 min pos   365,
 dipolmoment           0.000000      0.000000     -0.000309 electrons x Angstroem
 Tr[quadrupol]     -1884.033392

 energy correction for charged system         0.000000 eV
 dipol+quadrupol energy correction           -0.000000 eV
 added-field ion interaction          0.001347 eV  (added to PSCEN)


 Broyden mixing:
  rms(total) = 0.20176E+01    rms(broyden)= 0.20165E+01
  rms(prec ) = 0.21107E+01
  weight for this iteration     100.00

 Free energy of the ion-electron system (eV)
  ---------------------------------------------------
  alpha Z        PSCENC =        63.16241019
  Ewald energy   TEWEN  =     13036.10033751
  -Hartree energ DENC   =    -16262.25307722
  -exchange      EXHF   =         0.00000000
  -V(xc)+E(xc)   XCENC  =     -2050.97334793
  PAW double counting   =      5135.15659847    -2719.01140655
  entropy T*S    EENTRO =         0.00000000
  eigenvalues    EBANDS =     -1110.73719507
  atomic energy  EATOM  =      3827.98814510
  Solvation  Ediel_sol  =         0.00000000
  ---------------------------------------------------
  free energy    TOTEN  =       -80.56753550 eV

  energy without entropy =      -80.56753550  energy(sigma->0) =      -80.56753550


--------------------------------------------------------------------------------------------------------




--------------------------------------- Iteration      1(  13)  ---------------------------------------


    POTLOK:  cpu time    5.0956: real time    5.1294
    SETDIJ:  cpu time    0.1339: real time    0.1359
    EDDIAG:  cpu time    0.4877: real time    0.4883
  RMM-DIIS:  cpu time    2.6380: real time    2.6390
    ORTHCH:  cpu time    0.0722: real time    0.0722
 BZINTS: Fermi energy: -1.137019;138.000000 electrons
         Band energy:-926.588410;  BLOECHL correction: -0.072297
       DOS:  cpu time    0.0030: real time    0.0030
    CHARGE:  cpu time    0.1284: real time    0.1284
    MIXING:  cpu time    0.0041: real time    0.0041
    --------------------------------------------
      LOOP:  cpu time    8.5628: real time    8.6003

 eigenvalue-minimisations  :  1419
 total energy-change (2. order) : 0.1001455E+02  (-0.6210741E+01)
 number of electron     138.0000006 magnetization 
 augmentation part        4.4660721 magnetization 

 DIPCOR: dipole corrections for dipol
 direction  3 min pos   365,
 dipolmoment           0.000000      0.000000      0.485446 electrons x Angstroem
 Tr[quadrupol]     -1895.764237

 energy correction for charged system         0.000000 eV
 dipol+quadrupol energy correction           -0.008264 eV
 added-field ion interaction         -2.114012 eV  (added to PSCEN)


 Broyden mixing:
  rms(total) = 0.79348E+00    rms(broyden)= 0.79294E+00
  rms(prec ) = 0.98751E+00
  weight for this iteration     100.00

 eigenvalues of (default mixing * dielectric matrix)
  average eigenvalue GAMMA=   0.9399
  0.9399

 Free energy of the ion-electron system (eV)
  ---------------------------------------------------
  alpha Z        PSCENC =        61.03878742
  Ewald energy   TEWEN  =     13036.10033751
  -Hartree energ DENC   =    -16441.63502975
  -exchange      EXHF   =         0.00000000
  -V(xc)+E(xc)   XCENC  =     -2041.03186161
  PAW double counting   =      5557.56516637    -3143.99012475
  entropy T*S    EENTRO =         0.00000000
  eigenvalues    EBANDS =      -926.58841035
  atomic energy  EATOM  =      3827.98814510
  Solvation  Ediel_sol  =         0.00000000
  ---------------------------------------------------
  free energy    TOTEN  =       -70.55299005 eV

  energy without entropy =      -70.55299005  energy(sigma->0) =      -70.55299005


--------------------------------------------------------------------------------------------------------




--------------------------------------- Iteration      1(  14)  ---------------------------------------


    POTLOK:  cpu time    4.9161: real time    4.9421
    SETDIJ:  cpu time    0.1346: real time    0.1346
    EDDIAG:  cpu time    0.4786: real time    0.4791
  RMM-DIIS:  cpu time    2.9832: real time    2.9836
    ORTHCH:  cpu time    0.0723: real time    0.0723
 BZINTS: Fermi energy: -0.820741;138.000000 electrons
         Band energy:-994.758673;  BLOECHL correction: -0.007142
       DOS:  cpu time    0.0027: real time    0.0027
    CHARGE:  cpu time    0.1262: real time    0.1262
    MIXING:  cpu time    0.0035: real time    0.0035
    --------------------------------------------
      LOOP:  cpu time    8.7171: real time    8.7441

 eigenvalue-minimisations  :  1656
 total energy-change (2. order) :-0.2180578E+02  (-0.1107196E+01)
 number of electron     138.0000006 magnetization 
 augmentation part        4.4481846 magnetization 

 DIPCOR: dipole corrections for dipol
 direction  3 min pos   377,
 dipolmoment           0.000000      0.000000     -1.944038 electrons x Angstroem
 Tr[quadrupol]     -1881.881523

 energy correction for charged system         0.000000 eV
 dipol+quadrupol energy correction           -0.132534 eV
 added-field ion interaction         -6.267400 eV  (added to PSCEN)


 Broyden mixing:
  rms(total) = 0.10194E+01    rms(broyden)= 0.10194E+01
  rms(prec ) = 0.29763E+01
  weight for this iteration     100.00

 eigenvalues of (default mixing * dielectric matrix)
  average eigenvalue GAMMA=   0.7578
  0.9601  0.5554

 Free energy of the ion-electron system (eV)
  ---------------------------------------------------
  alpha Z        PSCENC =        56.76112924
  Ewald energy   TEWEN  =     13036.10033751
  -Hartree energ DENC   =    -16392.90762629
  -exchange      EXHF   =         0.00000000
  -V(xc)+E(xc)   XCENC  =     -2039.11061006
  PAW double counting   =      5712.13155293    -3298.56302211
  entropy T*S    EENTRO =         0.00000000
  eigenvalues    EBANDS =      -994.75867272
  atomic energy  EATOM  =      3827.98814510
  Solvation  Ediel_sol  =         0.00000000
  ---------------------------------------------------
  free energy    TOTEN  =       -92.35876641 eV

  energy without entropy =      -92.35876641  energy(sigma->0) =      -92.35876641


--------------------------------------------------------------------------------------------------------




--------------------------------------- Iteration      1(  15)  ---------------------------------------


    POTLOK:  cpu time    5.1305: real time    5.1550
    SETDIJ:  cpu time    0.1403: real time    0.1403
    EDDIAG:  cpu time    0.4850: real time    0.4855
  RMM-DIIS:  cpu time    2.8389: real time    2.8422
    ORTHCH:  cpu time    0.0710: real time    0.0710
 BZINTS: Fermi energy: -1.171271;138.000000 electrons
         Band energy:-921.216216;  BLOECHL correction: -0.096459
       DOS:  cpu time    0.0032: real time    0.0032
    CHARGE:  cpu time    0.1269: real time    0.1269
    MIXING:  cpu time    0.0035: real time    0.0035
    --------------------------------------------
      LOOP:  cpu time    8.7995: real time    8.8276

 eigenvalue-minimisations  :  1443
 total energy-change (2. order) : 0.2303228E+02  (-0.2557518E+00)
 number of electron     138.0000006 magnetization 
 augmentation part        4.3798165 magnetization 

 DIPCOR: dipole corrections for dipol
 direction  3 min pos   385,
 dipolmoment           0.000000      0.000000      0.079886 electrons x Angstroem
 Tr[quadrupol]     -1893.857915

 energy correction for charged system         0.000000 eV
 dipol+quadrupol energy correction           -0.000224 eV
 added-field ion interaction          0.661169 eV  (added to PSCEN)


 Broyden mixing:
  rms(total) = 0.49603E+00    rms(broyden)= 0.49599E+00
  rms(prec ) = 0.56453E+00
  weight for this iteration     100.00

 eigenvalues of (default mixing * dielectric matrix)
  average eigenvalue GAMMA=   1.0750
  1.9114  1.1673  0.1464

 Free energy of the ion-electron system (eV)
  ---------------------------------------------------
  alpha Z        PSCENC =        63.82200838
  Ewald energy   TEWEN  =     13036.10033751
  -Hartree energ DENC   =    -16450.93602404
  -exchange      EXHF   =         0.00000000
  -V(xc)+E(xc)   XCENC  =     -2038.66237996
  PAW double counting   =      5748.20501447    -3334.62737384
  entropy T*S    EENTRO =         0.00000000
  eigenvalues    EBANDS =      -921.21621574
  atomic energy  EATOM  =      3827.98814510
  Solvation  Ediel_sol  =         0.00000000
  ---------------------------------------------------
  free energy    TOTEN  =       -69.32648812 eV

  energy without entropy =      -69.32648812  energy(sigma->0) =      -69.32648812


--------------------------------------------------------------------------------------------------------




--------------------------------------- Iteration      1(  16)  ---------------------------------------


    POTLOK:  cpu time    4.9313: real time    4.9516
    SETDIJ:  cpu time    0.1388: real time    0.1388
    EDDIAG:  cpu time    0.4781: real time    0.4786
  RMM-DIIS:  cpu time    2.9095: real time    2.9127
    ORTHCH:  cpu time    0.0738: real time    0.0738
 BZINTS: Fermi energy: -0.892053;138.000000 electrons
         Band energy:-902.109755;  BLOECHL correction: -0.089901
       DOS:  cpu time    0.0028: real time    0.0028
    CHARGE:  cpu time    0.1426: real time    0.1426
    MIXING:  cpu time    0.0050: real time    0.0050
    --------------------------------------------
      LOOP:  cpu time    8.6819: real time    8.7059

 eigenvalue-minimisations  :  1559
 total energy-change (2. order) : 0.4382255E-01  (-0.1373579E+00)
 number of electron     138.0000006 magnetization 
 augmentation part        4.4352462 magnetization 

 DIPCOR: dipole corrections for dipol
 direction  3 min pos   369,
 dipolmoment           0.000000      0.000000      0.063476 electrons x Angstroem
 Tr[quadrupol]     -1898.929621

 energy correction for charged system         0.000000 eV
 dipol+quadrupol energy correction           -0.000141 eV
 added-field ion interaction         -0.116070 eV  (added to PSCEN)


 Broyden mixing:
  rms(total) = 0.24220E+00    rms(broyden)= 0.24218E+00
  rms(prec ) = 0.39279E+00
  weight for this iteration     100.00

 eigenvalues of (default mixing * dielectric matrix)
  average eigenvalue GAMMA=   1.0531
  2.3859  0.9752  0.7010  0.1501

 Free energy of the ion-electron system (eV)
  ---------------------------------------------------
  alpha Z        PSCENC =        63.04485194
  Ewald energy   TEWEN  =     13036.10033751
  -Hartree energ DENC   =    -16470.74273294
  -exchange      EXHF   =         0.00000000
  -V(xc)+E(xc)   XCENC  =     -2037.31830592
  PAW double counting   =      5863.96562398    -3450.21083041
  entropy T*S    EENTRO =         0.00000000
  eigenvalues    EBANDS =      -902.10975483
  atomic energy  EATOM  =      3827.98814510
  Solvation  Ediel_sol  =         0.00000000
  ---------------------------------------------------
  free energy    TOTEN  =       -69.28266557 eV

  energy without entropy =      -69.28266557  energy(sigma->0) =      -69.28266557


--------------------------------------------------------------------------------------------------------




--------------------------------------- Iteration      1(  17)  ---------------------------------------


    POTLOK:  cpu time    5.0278: real time    5.0555
    SETDIJ:  cpu time    0.1384: real time    0.1384
    EDDIAG:  cpu time    0.4768: real time    0.4773
  RMM-DIIS:  cpu time    2.4355: real time    2.4357
    ORTHCH:  cpu time    0.0716: real time    0.0716
 BZINTS: Fermi energy: -0.860949;138.000000 electrons
         Band energy:-897.402467;  BLOECHL correction: -0.095737
       DOS:  cpu time    0.0029: real time    0.0029
    CHARGE:  cpu time    0.1247: real time    0.1247
    MIXING:  cpu time    0.0045: real time    0.0045
    --------------------------------------------
      LOOP:  cpu time    8.2821: real time    8.3106

 eigenvalue-minimisations  :  1334
 total energy-change (2. order) : 0.3223869E+00  (-0.4175754E-01)
 number of electron     138.0000006 magnetization 
 augmentation part        4.4450615 magnetization 

 DIPCOR: dipole corrections for dipol
 direction  3 min pos   379,
 dipolmoment           0.000000      0.000000     -0.290815 electrons x Angstroem
 Tr[quadrupol]     -1897.229528

[...]
  0.013  -0.001  -0.000   0.054   0.001   0.000  -0.003  -0.000  -0.000   0.000   0.011  -0.000   0.000
  0.001   0.000  -0.001   0.001   0.077   0.000  -0.000  -0.004  -0.003  -0.000   0.000   0.004   0.000
  0.000   0.000  -0.004   0.000   0.000   0.000  -0.000  -0.000  -0.000  -0.000   0.000   0.000   0.000
 -0.003   0.000   0.000  -0.003  -0.000  -0.000   0.000   0.000   0.000  -0.000  -0.001   0.000  -0.000
 -0.000  -0.000   0.000  -0.000  -0.004  -0.000   0.000   0.000   0.000   0.000   0.000  -0.000  -0.000
  0.001   0.000   0.000  -0.000  -0.003  -0.000   0.000   0.000   0.004   0.000   0.000  -0.000  -0.000
  0.000  -0.000   0.004   0.000  -0.000  -0.000  -0.000   0.000   0.000   0.002   0.000   0.000  -0.000
 -0.022   0.000  -0.000   0.011   0.000   0.000  -0.001   0.000   0.000   0.000   0.004  -0.000   0.000
 -0.000   0.000  -0.000  -0.000   0.004   0.000   0.000  -0.000  -0.000   0.000  -0.000   0.002  -0.000
 -0.001  -0.000  -0.002   0.000   0.000   0.000  -0.000  -0.000  -0.000  -0.000   0.000  -0.000   0.003


------------------------ aborting loop because EDIFF is reached ----------------------------------------


    CHARGE:  cpu time    0.3577: real time    0.3578
    FORLOC:  cpu time    0.0398: real time    0.0398
    FORNL :  cpu time    0.6954: real time    0.6958
    STRESS:  cpu time    2.0932: real time    2.0941
    FORCOR:  cpu time    4.9413: real time    4.9459
    FORHAR:  cpu time    0.0737: real time    0.0737
    MIXING:  cpu time    0.0091: real time    0.0091
    OFIELD:  cpu time    0.0001: real time    0.0001

  FORCE on cell =-STRESS in cart. coord.  units (eV):
  Direction    XX          YY          ZZ          XY          YZ          ZX
  --------------------------------------------------------------------------------------
  Alpha Z    63.16106    63.16106    63.16106
  Ewald   14533.45916 14475.02095-15972.38970  -197.85474    61.65645   145.84811
  Hartree 15443.53282 15387.60873-14328.95059  -148.21311    -3.49638    38.43391
  E(xc)    -445.77775  -445.65910  -444.60412    -0.06400     0.48704     0.47164
  Local  -30936.59759-30827.18433 29335.62808   348.55110   -27.82057  -148.19284
  n-local   119.56412   119.29637   111.54719    -0.38916     0.10199     1.30364
  augment    44.34825    44.61051    45.56888    -0.18727    -2.01903    -2.47443
  Kinetic  1169.92322  1174.61724  1190.59189    -1.02169   -29.47479   -35.33907
  Fock        0.00000     0.00000     0.00000     0.00000     0.00000     0.00000
  -------------------------------------------------------------------------------------
  Total      -8.38671    -8.52857     0.55269     0.82115    -0.56530     0.05096
  in kB      -5.20823    -5.29632     0.34323     0.50994    -0.35106     0.03165
  external pressure =       -3.39 kB  Pullay stress =        0.00 kB


 VOLUME and BASIS-vectors are now :
 -----------------------------------------------------------------------------
  energy-cutoff  :      520.00
  volume of cell :     2579.96
      direct lattice vectors                 reciprocal lattice vectors
     9.555752754  0.000000000  0.000000000     0.104649003  0.060419130  0.000000000
    -4.777876377  8.275524637  0.000000000     0.000000000  0.120838260  0.000000000
     0.000000000  0.000000000 32.625095367     0.000000000  0.000000000  0.030651251

  length of vectors
     9.555752754  9.555752754 32.625095367     0.120838260  0.120838260  0.030651251


 FORCES acting on ions
    electron-ion (+dipol)            ewald-force                    non-local-force                 convergence-correction
 -----------------------------------------------------------------------------------------------
   0.598E-01 -.476E-01 0.122E+03   -.116E-01 -.697E-02 -.122E+03   -.356E-01 0.280E-01 -.793E+00   -.116E-05 0.251E-05 -.568E-04
   0.399E+00 -.805E-01 0.566E+02   -.310E+00 0.180E-01 -.567E+02   -.741E-01 0.544E-01 0.910E-01   -.102E-05 -.255E-05 -.168E-03
   0.125E+01 -.311E+01 0.153E+01   -.114E+01 0.310E+01 -.209E+01   -.104E+00 0.583E-02 0.553E+00   -.121E-05 0.843E-06 0.427E-04
   -.490E-01 -.181E-01 0.122E+03   -.131E-01 -.288E-02 -.122E+03   0.114E-01 0.534E-02 -.870E+00   0.410E-06 -.107E-05 -.559E-04
   0.186E+00 0.184E-02 0.567E+02   -.144E+00 -.186E-01 -.568E+02   -.425E-01 0.184E-01 0.778E-01   0.104E-06 0.295E-05 -.170E-03
   -.359E+01 -.373E+01 -.131E+02   0.349E+01 0.368E+01 0.129E+02   0.839E-01 0.473E-01 0.230E+00   0.247E-05 0.190E-05 0.233E-04
   0.144E-01 0.682E-01 0.122E+03   -.830E-02 -.932E-02 -.122E+03   0.113E-01 -.320E-01 -.880E+00   0.114E-05 -.124E-05 -.551E-04
   0.944E-02 0.370E+00 0.564E+02   -.451E-01 -.286E+00 -.566E+02   0.280E-01 -.686E-01 0.142E+00   -.143E-05 -.181E-05 -.166E-03
   -.497E+01 0.178E+01 -.141E+02   0.538E+01 -.148E+01 0.134E+02   -.406E+00 -.270E+00 0.675E+00   -.154E-05 -.143E-05 0.163E-04
   -.582E-01 -.467E-01 0.122E+03   0.652E-02 0.531E-03 -.122E+03   0.352E-01 0.239E-01 -.868E+00   0.117E-05 -.125E-06 -.557E-04
   -.199E+00 -.558E-01 0.569E+02   0.137E+00 0.654E-02 -.570E+02   0.513E-01 0.438E-01 0.138E+00   0.975E-06 -.639E-06 -.169E-03
   0.424E+00 0.630E+00 -.334E+01   -.612E+00 -.759E+00 0.281E+01   0.165E+00 0.134E+00 0.527E+00   0.140E-06 0.101E-06 0.129E-04
   0.441E-01 0.218E-01 0.122E+03   0.399E-02 0.687E-02 -.122E+03   -.355E-01 -.219E-01 -.856E+00   -.278E-05 -.207E-05 -.567E-04
   0.201E+00 -.505E-01 0.572E+02   -.168E+00 0.197E-02 -.573E+02   -.199E-01 0.325E-01 0.543E-01   0.101E-05 0.294E-05 -.165E-03
   0.674E+01 0.437E+01 -.141E+02   -.680E+01 -.515E+01 0.134E+02   0.657E-01 0.786E+00 0.740E+00   0.131E-05 0.949E-05 0.181E-04
   -.482E-01 -.618E-02 0.122E+03   0.408E-02 0.972E-03 -.122E+03   0.316E-01 0.517E-02 -.773E+00   -.175E-05 0.222E-06 -.564E-04
   -.529E-01 0.842E-01 0.570E+02   -.252E-01 -.375E-01 -.570E+02   0.630E-01 -.318E-01 0.444E-02   0.120E-05 -.453E-06 -.166E-03
   0.780E+01 0.616E+01 -.242E+01   -.814E+01 -.599E+01 0.203E+01   0.330E+00 -.170E+00 0.388E+00   0.660E-05 -.524E-05 0.409E-04
   -.978E-02 0.756E-01 0.122E+03   0.514E-02 0.412E-02 -.122E+03   0.976E-02 -.319E-01 -.883E+00   -.298E-07 0.162E-05 -.557E-04
   -.250E+00 -.381E-01 0.565E+02   0.196E+00 0.503E-01 -.567E+02   0.480E-01 -.189E-01 0.147E+00   -.187E-08 -.338E-05 -.170E-03
   -.103E+01 0.988E+00 -.121E+02   0.119E+01 -.106E+01 0.118E+02   -.146E+00 0.888E-01 0.289E+00   0.278E-06 -.219E-05 0.222E-04
   0.703E-01 -.403E-01 0.122E+03   0.917E-02 0.446E-02 -.122E+03   -.345E-01 0.748E-02 -.811E+00   0.240E-05 -.138E-05 -.550E-04
   -.300E+00 -.433E-01 0.567E+02   0.292E+00 0.685E-01 -.568E+02   0.475E-02 -.885E-02 0.912E-01   -.123E-05 0.348E-05 -.167E-03
   -.112E+02 0.612E+01 0.870E+01   0.116E+02 -.672E+01 -.952E+01   -.384E+00 0.632E+00 0.846E+00   -.240E-05 0.306E-05 0.434E-04
   -.604E-01 0.155E-01 0.122E+03   0.421E-02 0.209E-02 -.122E+03   0.440E-01 -.788E-02 -.771E+00   0.643E-06 0.145E-05 -.557E-04
   -.650E-01 -.172E+00 0.568E+02   0.888E-01 0.200E+00 -.569E+02   -.606E-02 -.275E-01 -.133E-01   0.214E-06 -.693E-06 -.164E-03
   0.984E+01 -.184E+02 0.816E+01   -.943E+01 0.184E+02 -.741E+01   -.435E+00 0.346E-01 -.768E+00   -.527E-05 -.627E-05 0.267E-04
   0.125E+00 0.712E-01 0.900E+02   -.967E-01 -.647E-01 -.899E+02   -.211E-01 -.180E-01 -.325E-01   -.312E-05 0.273E-06 -.148E-03
   0.646E+00 0.385E+00 0.231E+02   -.677E+00 -.297E+00 -.232E+02   0.311E-01 -.962E-01 0.169E+00   0.241E-05 0.223E-05 -.924E-04
   0.119E+00 0.176E-02 0.899E+02   -.546E-01 -.104E-01 -.899E+02   -.469E-01 0.295E-01 -.204E-01   -.143E-05 -.145E-05 -.146E-03
   -.170E+00 0.310E+00 0.231E+02   0.178E+00 -.309E+00 -.231E+02   -.784E-02 0.108E-01 0.890E-01   0.908E-06 0.191E-05 -.932E-04
   0.762E-01 0.193E-01 0.899E+02   -.852E-01 -.422E-01 -.899E+02   -.132E-01 0.248E-01 -.685E-01   0.734E-06 -.969E-06 -.146E-03
   0.492E+00 -.405E-01 0.247E+02   -.437E+00 0.305E-01 -.247E+02   -.561E-01 0.173E-01 0.183E-01   -.117E-05 -.314E-05 -.952E-04
   -.226E+00 -.599E-01 0.900E+02   0.148E+00 0.675E-01 -.899E+02   0.703E-01 0.164E-01 -.428E-01   0.234E-05 -.152E-05 -.147E-03
   -.303E+00 0.547E+00 0.251E+02   0.195E+00 -.573E+00 -.253E+02   0.103E+00 0.343E-01 0.250E+00   -.587E-06 0.469E-05 -.934E-04
   -.488E-01 -.113E+00 0.899E+02   0.498E-01 0.994E-01 -.898E+02   0.165E-02 0.178E-01 -.695E-01   -.917E-06 0.101E-05 -.145E-03
   0.148E+01 -.411E+00 0.254E+02   -.138E+01 0.292E+00 -.258E+02   -.988E-01 0.127E+00 0.347E+00   0.213E-05 0.119E-05 -.922E-04
   -.854E-01 -.180E-01 0.900E+02   0.836E-01 0.716E-02 -.899E+02   0.578E-03 -.149E-01 -.318E-01   0.211E-06 0.145E-05 -.147E-03
   -.808E-01 0.395E+00 0.239E+02   0.145E+00 -.374E+00 -.240E+02   -.718E-01 -.251E-01 0.133E+00   0.331E-06 -.483E-05 -.922E-04
   0.881E-01 -.578E-02 0.898E+02   -.636E-01 0.228E-01 -.898E+02   -.305E-01 -.567E-02 -.412E-01   0.730E-06 0.302E-06 -.148E-03
   -.365E+00 -.219E+00 0.243E+02   0.505E+00 0.146E+00 -.244E+02   -.141E+00 0.790E-01 0.444E-01   -.191E-05 0.325E-05 -.940E-04
   -.120E-01 0.550E-01 0.899E+02   0.555E-02 -.529E-01 -.898E+02   -.256E-02 -.275E-02 0.525E-01   0.232E-05 -.638E-06 -.145E-03
   -.146E+01 0.121E+00 0.244E+02   0.141E+01 -.578E-01 -.244E+02   0.612E-01 -.643E-01 -.524E-01   -.319E-05 0.129E-05 -.878E-04
   0.952E-02 -.226E-01 0.899E+02   -.679E-02 -.476E-02 -.898E+02   0.154E-01 0.159E-01 0.101E-01   -.886E-06 0.158E-05 -.146E-03
   -.375E+00 -.123E+01 0.230E+02   0.288E+00 0.123E+01 -.232E+02   0.892E-01 0.679E-02 0.143E+00   0.893E-06 -.674E-05 -.895E-04
   0.139E+02 0.417E+02 -.264E+03   -.229E+02 -.655E+02 0.238E+03   0.898E+01 0.238E+02 0.266E+02   -.114E-04 0.386E-04 0.243E-03
   0.225E+02 0.376E+02 -.423E+03   -.291E+02 -.601E+02 0.459E+03   0.663E+01 0.225E+02 -.352E+02   0.170E-04 0.146E-04 0.155E-03
   0.135E+01 0.611E+01 -.421E+03   -.121E+02 -.352E+02 0.451E+03   0.108E+02 0.291E+02 -.303E+02   0.203E-04 0.665E-04 0.117E-03
   0.251E+02 0.405E+02 -.304E+03   -.464E+02 -.672E+02 0.289E+03   0.213E+02 0.266E+02 0.143E+02   0.301E-04 -.885E-05 0.243E-03
   0.403E+02 -.307E+02 -.206E+03   -.597E+02 0.105E+02 0.195E+03   0.194E+02 0.201E+02 0.108E+02   -.286E-04 -.167E-04 0.231E-03
   0.146E+01 0.813E+02 -.279E+03   -.195E+02 -.108E+03 0.259E+03   0.180E+02 0.268E+02 0.205E+02   0.270E-04 0.126E-04 0.239E-03
   0.400E+02 -.355E+02 -.931E+02   -.453E+02 0.401E+02 0.966E+02   0.532E+01 -.457E+01 -.349E+01   -.441E-05 0.642E-05 0.348E-04
   -.577E+02 -.477E+01 -.970E+02   0.648E+02 0.507E+01 0.101E+03   -.717E+01 -.307E+00 -.373E+01   -.268E-05 0.284E-05 0.338E-04
   -.250E+02 -.617E+02 -.570E+02   0.283E+02 0.689E+02 0.564E+02   -.333E+01 -.721E+01 0.588E+00   0.605E-06 -.192E-05 0.331E-04
   0.224E+02 0.229E+02 0.324E+02   -.245E+02 -.249E+02 -.393E+02   0.203E+01 0.199E+01 0.689E+01   0.344E-05 0.240E-05 0.439E-04
   -.380E+02 -.803E+02 -.703E+02   0.414E+02 0.877E+02 0.709E+02   -.345E+01 -.736E+01 -.655E+00   -.563E-05 -.111E-04 0.289E-04
   0.117E+02 0.713E+01 0.339E+02   -.131E+02 -.808E+01 -.411E+02   0.139E+01 0.948E+00 0.712E+01   0.469E-05 0.713E-05 0.552E-04
   0.255E+02 -.500E+02 -.688E+02   -.278E+02 0.560E+02 0.689E+02   0.239E+01 -.604E+01 -.599E-01   0.168E-05 -.279E-05 0.380E-04
   -.620E+02 0.281E+00 -.104E+03   0.690E+02 -.802E+00 0.108E+03   -.695E+01 0.497E+00 -.413E+01   0.525E-05 -.867E-06 0.337E-04
   -.463E+02 -.543E+02 -.876E+02   0.509E+02 0.595E+02 0.915E+02   -.455E+01 -.519E+01 -.395E+01   -.373E-06 0.593E-06 0.400E-04
   0.519E+01 0.390E+01 -.111E+02   -.513E+01 -.398E+01 0.114E+02   -.633E-01 0.866E-01 -.308E+00   0.472E-06 0.823E-06 0.211E-04
   0.256E+02 -.415E+02 -.875E+02   -.296E+02 0.475E+02 0.906E+02   0.395E+01 -.596E+01 -.305E+01   0.354E-05 -.242E-05 0.352E-04
   -.772E+02 0.548E+01 -.878E+02   0.849E+02 -.568E+01 0.907E+02   -.774E+01 0.206E+00 -.287E+01   -.347E-05 -.922E-06 0.347E-04
 -----------------------------------------------------------------------------------------------
   -.661E+02 -.117E+03 0.333E+01   0.568E-13 0.139E-12 -.341E-12   0.661E+02 0.117E+03 -.337E+01   0.575E-04 0.107E-03 -.225E-02
 
 
 POSITION                                       TOTAL-FORCE (eV/Angst)
 -----------------------------------------------------------------------------------
      0.00000      0.00000      0.00000         0.012537     -0.026777      0.001035
      9.54301      0.00376      5.16419         0.015309     -0.008224      0.002516
     -0.01132      0.06108     10.77788         0.002487     -0.009166     -0.003410
     -1.59263      2.75851      0.00000        -0.050659     -0.015788     -0.032732
     -1.59553      2.76801      5.14015        -0.000456      0.001482     -0.007070
      7.83809      2.81236     10.19032        -0.019816      0.001665      0.018626
     -3.18525      5.51702      0.00000         0.017369      0.026713     -0.016192
      6.35773      5.52606      5.15428        -0.007641      0.014689     -0.003795
     -3.13440      5.63224     10.21225         0.012561      0.027991     -0.004226
      3.18525      0.00000      0.00000        -0.016550     -0.022460     -0.016817
      3.18396      0.00318      5.12889        -0.011209     -0.005609     -0.000766
      3.13491      0.08711     10.08016        -0.023857      0.004548     -0.000895
      1.59263      2.75851      0.00000         0.012587      0.006676     -0.028568
      1.58086      2.74881      5.12377         0.012271     -0.016193     -0.017162
      1.47986      2.72807     10.17345         0.009110      0.011187      0.004724
     -0.00000      5.51702      0.00000        -0.012591     -0.000184     -0.020905
     -0.01589      5.53242      5.15141        -0.015071      0.014759     -0.001364
     -0.14627      5.63366     10.75360        -0.005183     -0.000275     -0.001663
      6.37050      0.00000      0.00000         0.005093      0.047712     -0.029855
      1.59032      8.26900      5.14868        -0.006000     -0.006831      0.000291
      6.36491      0.08957     10.23676         0.009195      0.015620      0.023323
      4.77788      2.75851      0.00000         0.045015     -0.028527     -0.018578
      4.76751      2.77883      5.18052        -0.003285      0.016202     -0.004873
      4.74007      2.79947     10.82340        -0.003866      0.031724      0.033667
      3.18525      5.51702      0.00000        -0.012232      0.009525     -0.054691
      3.20507      5.52841      5.16387         0.017810      0.000607     -0.012892
      3.10008      5.57731     10.48879        -0.022640      0.022381     -0.015193
      0.00000      1.83901      2.60418         0.006986     -0.011697      0.025462
     -0.04437      1.82547      7.71459        -0.000269     -0.009127      0.002228
     -1.59263      4.59751      2.60418         0.016953      0.020706      0.030474
     -1.55883      4.62693      7.71145        -0.000090      0.011288      0.007336
     -3.18525      7.35602      2.60418        -0.022186      0.001720     -0.035733
     -3.21681      7.38433      7.66074        -0.001368      0.007139      0.021014
      3.18525      1.83901      2.60418        -0.007752      0.023905      0.040480
      3.17717      1.90355      7.69285        -0.005164      0.008120     -0.001184
      1.59263      4.59751      2.60418         0.002623      0.003827      0.011513
      1.60143      4.61579      7.63234         0.005274      0.007770      0.005910
      0.00000      7.35602      2.60418        -0.001241     -0.025900      0.029489
      0.00876      7.32767      7.72961        -0.007364     -0.004030     -0.000947
      6.37050      1.83901      2.60418        -0.006030      0.011207     -0.010327
      6.33374      1.84170      7.67511        -0.000619      0.006207      0.000950
      4.77788      4.59751      2.60418        -0.009079     -0.000789      0.083612
      4.75539      4.57843      7.84938         0.006790     -0.001061     -0.017961
      3.18525      7.35602      2.60418         0.018133     -0.011629      0.042869
      3.20703      7.33476      7.81957         0.001931      0.003834     -0.002818
      0.02117      0.00213     12.92310        -0.003004      0.001823      0.007595
     -1.75483      8.02768     13.45459         0.002778     -0.000690      0.021947
      7.43375      1.80001     13.57411        -0.005843      0.004153      0.030600
      4.42665      2.37644     12.94520         0.003815     -0.039866      0.045293
      3.81348      4.71909     12.14588         0.022764     -0.045839     -0.061078
      0.04577      5.86232     12.86613        -0.016856     -0.000995      0.010250
      8.92368      0.59282     13.37833        -0.003687      0.001681     -0.003781
      0.88579      0.06012     13.38971         0.002419     -0.000714     -0.007736
      3.43453      0.64625     13.35814         0.001838     -0.004014      0.000243
     -2.01147      7.78916     12.52256        -0.011622     -0.005614     -0.011173
      7.84763      2.68641     13.63091        -0.002703      0.003597     -0.009045
      7.25723      1.69685     12.59390         0.001537      0.000265     -0.019268
      4.08203      3.34407     12.95089         0.006934     -0.036683      0.020784
      5.27028      2.34264     13.44768         0.020137     -0.023937      0.010094
      4.38092      5.35679     12.62527         0.043051     -0.023846     -0.054947
      1.44305      4.56869     10.74138        -0.004414      0.000189      0.004485
     -0.43537      6.63595     13.26390        -0.013697      0.003128     -0.005660
      0.95837      5.86101     13.21693        -0.001261      0.012426     -0.003509
 -----------------------------------------------------------------------------------
    total drift:                                0.001680      0.009179     -0.042987


--------------------------------------------------------------------------------------------------------



  FREE ENERGIE OF THE ION-ELECTRON SYSTEM (eV)
  ---------------------------------------------------
  free  energy   TOTEN  =       -68.92297077 eV

  energy  without entropy=      -68.92297077  energy(sigma->0) =      -68.92297077
 


--------------------------------------------------------------------------------------------------------


    POTLOK:  cpu time    5.0661: real time    5.0730


--------------------------------------------------------------------------------------------------------


 stress matrix after NEB project (eV)
     -8.38671      0.82115      0.05096
      0.82115     -8.52857     -0.56530
      0.05096     -0.56530      0.55269
  FORCES: max atom, RMS     0.079686    0.022835
  FORCE total and by dimension    0.181246    0.061078
  Stress total and by dimension   12.057017    8.528566
     LOOP+:  cpu time  278.7165: real time  280.3865
 vacuum level on the upper side and lower side of the slab         2.311         3.129
    4ORBIT:  cpu time    0.0000: real time    0.0000
 BZINTS: Fermi energy: -0.702651;138.000000 electrons
         Band energy:-877.062241;  BLOECHL correction: -0.098027

 total amount of memory used by VASP MPI-rank0    62209. kBytes
=======================================================================

   base      :      30000. kBytes
   nonlr-proj:       6306. kBytes
   fftplans  :       6459. kBytes
   grid      :      11407. kBytes
   one-center:         24. kBytes
   wavefun   :       8013. kBytes
 
  
  
 General timing and accounting informations for this job:
 ========================================================
  
                  Total CPU time used (sec):      323.697
                            User time (sec):      315.128
                          System time (sec):        8.569
                         Elapsed time (sec):      334.959
  
                   Maximum memory used (kb):      267072.
                   Average memory used (kb):           0.
  
                          Minor page faults:       246557
                          Major page faults:            0
                 Voluntary context switches:        69148
