<?xml version="1.0" encoding="ISO-8859-1"?>
<modeling>
 <generator>
  <i name="program" type="string">vasp </i>
  <i name="version" type="string">5.4.4.18Apr17-6-g9f103f2a35  </i>
  <i name="subversion" type="string">(build Jun 08 2018 12:06:12) complex            parallel </i>
  <i name="platform" type="string">LinuxIFC </i>
  <i name="date" type="string">2019 06 06 </i>
  <i name="time" type="string">07:34:14 </i>
 </generator>
 <incar>
  <i type="string" name="SYSTEM"> Mg_slab_in_a_box</i>
  <i type="string" name="PREC">accurate</i>
  <i type="string" name="ALGO"> V</i>
  <i type="int" name="NELM">   300</i>
  <i type="int" name="NELMIN">     6</i>
  <i name="EDIFF">      0.00000500</i>
  <i name="ENCUT">    520.00000000</i>
  <i type="string" name="LREAL"> AUTO</i>
  <i type="logical" name="LPLANE"> T  </i>
  <i type="int" name="ISMEAR">    -5</i>
  <i type="logical" name="LWAVE"> F  </i>
  <i type="logical" name="LCHARG"> T  </i>
  <i type="logical" name="LVTOT"> T  </i>
  <i type="logical" name="LVHAR"> T  </i>
  <i type="logical" name="LSCALU"> F  </i>
  <i type="logical" name="LASPH"> T  </i>
  <i type="logical" name="LAECHG"> T  </i>
  <v type="int" name="KPOINT_BSE">    -1     0     0     0</v>
  <i type="int" name="NELM">   300</i>
  <i type="string" name="GGA"> BO</i>
  <i name="PARAM1">      0.18333333</i>
  <i name="PARAM2">      0.22000000</i>
  <i type="logical" name="LUSE_VDW"> T  </i>
  <i name="AGGAC">      0.00000000</i>
  <i type="logical" name="LDIPOL"> T  </i>
  <i type="int" name="IDIPOL">     3</i>
  <i type="logical" name="LASPH"> T  </i>
 </incar>
 <structure name="primitive_cell" >
  <crystal>
   <varray name="basis" >
    <v>       9.55575275       0.00000000       0.00000000 </v>
    <v>      -4.77787638       8.27552464       0.00000000 </v>
    <v>       0.00000000       0.00000000      32.62509537 </v>
   </varray>
   <i name="volume">   2579.95558872 </i>
   <varray name="rec_basis" >
    <v>       0.10464900       0.06041913       0.00000000 </v>
    <v>       0.00000000       0.12083826       0.00000000 </v>
    <v>       0.00000000       0.00000000       0.03065125 </v>
   </varray>
  </crystal>
  <varray name="positions" >
   <v>       0.00000000       0.00000000       0.00000000 </v>
   <v>       0.00000002      -0.33333328       0.00000000 </v>
   <v>      -0.33333330      -0.33333328       0.00000000 </v>
   <v>      -0.33333332       0.00000000       0.00000000 </v>
   <v>       0.33333334       0.00000000       0.00000000 </v>
   <v>       0.00000001       0.33333336       0.00000000 </v>
   <v>       0.33333335       0.33333336       0.00000000 </v>
   <v>      -0.22222216      -0.11111106       0.07982145 </v>
   <v>       0.11111116      -0.11111106       0.07982145 </v>
   <v>       0.11111113       0.22222222       0.07982145 </v>
   <v>      -0.22222219      -0.44444439       0.07982145 </v>
   <v>      -0.22222221       0.22222222       0.07982145 </v>
   <v>       0.44444450       0.22222222       0.07982145 </v>
   <v>      -0.00110613       0.00045461       0.15828884 </v>
   <v>       0.33333336      -0.33333328       0.00000000 </v>
   <v>      -0.33333332       0.33333336       0.00000000 </v>
   <v>       0.44444450      -0.44444439       0.07982145 </v>
   <v>       0.44444451      -0.11111106       0.07982145 </v>
   <v>       0.11111114      -0.44444439       0.07982145 </v>
   <v>       0.33151571       0.33216131       0.15704984 </v>
   <v>       0.33339097       0.00038441       0.15720674 </v>
   <v>      -0.00079000      -0.33224075       0.15798526 </v>
   <v>       0.00026992       0.33448171       0.15755208 </v>
   <v>      -0.33396902      -0.00078801       0.15781361 </v>
   <v>      -0.33057080      -0.33195629       0.15827905 </v>
   <v>       0.33260130      -0.33147223       0.15789708 </v>
   <v>      -0.33318991       0.33578940       0.15878930 </v>
   <v>       0.10951918      -0.10769024       0.23481120 </v>
   <v>       0.10564969       0.22058646       0.23646198 </v>
   <v>      -0.22122761      -0.11368066       0.23967947 </v>
   <v>      -0.22590610       0.22254811       0.23525176 </v>
   <v>       0.44749838       0.23002171       0.23579561 </v>
   <v>      -0.22572821      -0.44675096       0.24059318 </v>
   <v>       0.44647019      -0.44223622       0.23394085 </v>
   <v>       0.11642507      -0.44088977       0.23636570 </v>
   <v>       0.44364825      -0.11453759       0.23692226 </v>
   <v>       0.33332827       0.01052602       0.30896950 </v>
   <v>       0.31969338       0.32965556       0.31182887 </v>
   <v>       0.01228353      -0.31940986       0.31301830 </v>
   <v>      -0.00983114       0.33984115       0.31234616 </v>
   <v>      -0.32850683       0.01082301       0.31376960 </v>
   <v>       0.00250617       0.00738088       0.33035564 </v>
   <v>      -0.33860381      -0.32604773       0.32149446 </v>
   <v>       0.42704986      -0.44792696       0.32923667 </v>
   <v>       0.32507412      -0.31923792       0.32961120 </v>
   <v>      -0.33481542       0.33828249       0.33175090 </v>
   <v>      -0.31580029      -0.42975330       0.37228630 </v>
   <v>       0.26011565      -0.05877122       0.38383198 </v>
   <v>      -0.13801558       0.20504449       0.38601867 </v>
   <v>       0.00234391       0.00025774       0.39610915 </v>
   <v>      -0.21788860      -0.35269455       0.38698038 </v>
   <v>      -0.03032795       0.07163503       0.41006243 </v>
   <v>       0.09632977       0.00726479       0.41041144 </v>
   <v>       0.30138411      -0.02994967       0.41240017 </v>
   <v>       0.39846604       0.07809152       0.40944366 </v>
   <v>      -0.11331049       0.21750993       0.41606358 </v>
   <v>      -0.37077440       0.40409130       0.39696085 </v>
   <v>      -0.39317339       0.28716515       0.39678647 </v>
   <v>       0.35898661      -0.29160694       0.39436290 </v>
   <v>       0.45440951      -0.29176599       0.40511558 </v>
   <v>      -0.01644285       0.32462053       0.41780459 </v>
   <v>       0.35537716      -0.19812308       0.40655527 </v>
   <v>      -0.30693024       0.28308081       0.41218824 </v>
  </varray>
 </structure>
 <varray name="primitive_index" >
  <v type="int" >        1 </v>
  <v type="int" >        7 </v>
  <v type="int" >       25 </v>
  <v type="int" >       19 </v>
  <v type="int" >       10 </v>
  <v type="int" >        4 </v>
  <v type="int" >       13 </v>
  <v type="int" >       44 </v>
  <v type="int" >       32 </v>
  <v type="int" >       28 </v>
  <v type="int" >       42 </v>
  <v type="int" >       40 </v>
  <v type="int" >       34 </v>
  <v type="int" >        2 </v>
  <v type="int" >       16 </v>
  <v type="int" >       22 </v>
  <v type="int" >       36 </v>
  <v type="int" >       38 </v>
  <v type="int" >       30 </v>
  <v type="int" >       14 </v>
  <v type="int" >       11 </v>
  <v type="int" >        8 </v>
  <v type="int" >        5 </v>
  <v type="int" >       20 </v>
  <v type="int" >       26 </v>
  <v type="int" >       17 </v>
  <v type="int" >       23 </v>
  <v type="int" >       33 </v>
  <v type="int" >       29 </v>
  <v type="int" >       45 </v>
  <v type="int" >       41 </v>
  <v type="int" >       35 </v>
  <v type="int" >       43 </v>
  <v type="int" >       37 </v>
  <v type="int" >       31 </v>
  <v type="int" >       39 </v>
  <v type="int" >       12 </v>
  <v type="int" >       15 </v>
  <v type="int" >        9 </v>
  <v type="int" >        6 </v>
  <v type="int" >       21 </v>
  <v type="int" >        3 </v>
  <v type="int" >       27 </v>
  <v type="int" >       61 </v>
  <v type="int" >       18 </v>
  <v type="int" >       24 </v>
  <v type="int" >       50 </v>
  <v type="int" >       55 </v>
  <v type="int" >       57 </v>
  <v type="int" >       46 </v>
  <v type="int" >       60 </v>
  <v type="int" >       52 </v>
  <v type="int" >       53 </v>
  <v type="int" >       47 </v>
  <v type="int" >       54 </v>
  <v type="int" >       48 </v>
  <v type="int" >       58 </v>
  <v type="int" >       49 </v>
  <v type="int" >       51 </v>
  <v type="int" >       63 </v>
  <v type="int" >       56 </v>
  <v type="int" >       62 </v>
  <v type="int" >       59 </v>
 </varray>
 <kpoints>
  <generation param="Gamma">
   <v type="int" name="divisions">       3        3        1 </v>
   <v name="usershift">      0.00000000       0.00000000       0.00000000 </v>
   <v name="genvec1">      0.33333333       0.00000000       0.00000000 </v>
   <v name="genvec2">      0.00000000       0.33333333       0.00000000 </v>
   <v name="genvec3">      0.00000000       0.00000000       1.00000000 </v>
   <v name="shift">      0.00000000       0.00000000       0.00000000 </v>
  </generation>
  <varray name="kpointlist" >
   <v>       0.00000000       0.00000000       0.00000000 </v>
   <v>       0.33333333      -0.00000000       0.00000000 </v>
   <v>       0.00000000       0.33333333       0.00000000 </v>
   <v>       0.33333333       0.33333333       0.00000000 </v>
   <v>      -0.33333333       0.33333333       0.00000000 </v>
  </varray>
  <varray name="weights" >
   <v>       0.11111111 </v>
   <v>       0.22222222 </v>
   <v>       0.22222222 </v>
   <v>       0.22222222 </v>
   <v>       0.22222222 </v>
  </varray>
  <varray name="tetrahedronlist"  type="int" >
   <v type="int" >        2        2        3        3        4 </v>
   <v type="int" >        2        1        2        3        3 </v>
   <v type="int" >        2        1        1        2        3 </v>
   <v type="int" >        2        2        3        4        4 </v>
   <v type="int" >        2        2        2        3        4 </v>
   <v type="int" >        2        1        2        2        3 </v>
   <v type="int" >        2        2        4        4        5 </v>
   <v type="int" >        2        2        2        4        4 </v>
   <v type="int" >        4        2        2        2        4 </v>
   <v type="int" >        2        2        4        5        5 </v>
   <v type="int" >        2        2        2        4        5 </v>
   <v type="int" >        2        1        3        5        5 </v>
   <v type="int" >        2        1        2        5        5 </v>
   <v type="int" >        2        1        2        2        5 </v>
   <v type="int" >        2        1        3        3        5 </v>
   <v type="int" >        2        1        1        3        5 </v>
   <v type="int" >        2        1        1        2        5 </v>
   <v type="int" >        2        3        3        4        5 </v>
   <v type="int" >        4        3        3        3        4 </v>
   <v type="int" >        2        3        4        5        5 </v>
   <v type="int" >        2        3        4        4        5 </v>
   <v type="int" >        2        3        3        4        4 </v>
   <v type="int" >        4        4        5        5        5 </v>
   <v type="int" >        2        4        4        5        5 </v>
  </varray>
  <i name="volumeweight">      0.01851852 </i>
 </kpoints>
 <parameters>
  <separator name="general" >
   <i type="string" name="SYSTEM">Mg_slab_in_a_box</i>
   <i type="logical" name="LCOMPAT"> F  </i>
  </separator>
  <separator name="electronic" >
   <i type="string" name="PREC">accura</i>
   <i name="ENMAX">    520.00000000</i>
   <i name="ENAUG">    605.39200000</i>
   <i name="EDIFF">      0.00000500</i>
   <i type="int" name="IALGO">    48</i>
   <i type="int" name="IWAVPR">    10</i>
   <i type="int" name="NBANDS">   102</i>
   <i name="NELECT">    138.00000000</i>
   <i type="int" name="TURBO">     0</i>
   <i type="int" name="IRESTART">     0</i>
   <i type="int" name="NREBOOT">     0</i>
   <i type="int" name="NMIN">     0</i>
   <i name="EREF">      0.00000000</i>
   <separator name="electronic smearing" >
    <i type="int" name="ISMEAR">    -5</i>
    <i name="SIGMA">      0.20000000</i>
    <i name="KSPACING">      0.50000000</i>
    <i type="logical" name="KGAMMA"> T  </i>
   </separator>
   <separator name="electronic projectors" >
    <i type="logical" name="LREAL"> T  </i>
    <v name="ROPT">     -0.00025000     -0.00025000     -0.00025000</v>
    <i type="int" name="LMAXPAW">  -100</i>
    <i type="int" name="LMAXMIX">     2</i>
    <i type="logical" name="NLSPLINE"> F  </i>
   </separator>
   <separator name="electronic startup" >
    <i type="int" name="ISTART">     0</i>
    <i type="int" name="ICHARG">     2</i>
    <i type="int" name="INIWAV">     1</i>
   </separator>
   <separator name="electronic spin" >
    <i type="int" name="ISPIN">     1</i>
    <i type="logical" name="LNONCOLLINEAR"> F  </i>
    <v name="MAGMOM">      1.00000000      1.00000000      1.00000000      1.00000000      1.00000000      1.00000000      1.00000000      1.00000000      1.00000000      1.00000000      1.00000000      1.00000000      1.00000000      1.00000000      1.00000000      1.00000000      1.00000000      1.00000000      1.00000000      1.00000000
      1.00000000      1.00000000      1.00000000      1.00000000      1.00000000      1.00000000      1.00000000      1.00000000      1.00000000      1.00000000      1.00000000      1.00000000      1.00000000      1.00000000      1.00000000      1.00000000      1.00000000      1.00000000      1.00000000      1.00000000
      1.00000000      1.00000000      1.00000000      1.00000000      1.00000000      1.00000000      1.00000000      1.00000000      1.00000000      1.00000000      1.00000000      1.00000000      1.00000000      1.00000000      1.00000000      1.00000000      1.00000000      1.00000000      1.00000000      1.00000000
      1.00000000      1.00000000      1.00000000</v>
    <i name="NUPDOWN">     -1.00000000</i>
    <i type="logical" name="LSORBIT"> F  </i>
    <v name="SAXIS">      0.00000000      0.00000000      1.00000000</v>
    <i type="logical" name="LSPIRAL"> F  </i>
    <v name="QSPIRAL">      0.00000000      0.00000000      0.00000000</v>
    <i type="logical" name="LZEROZ"> F  </i>
   </separator>
   <separator name="electronic exchange-correlation" >
    <i type="logical" name="LASPH"> T  </i>
    <i type="logical" name="LMETAGGA"> F  </i>
   </separator>
   <separator name="electronic convergence" >
    <i type="int" name="NELM">   300</i>
    <i type="int" name="NELMDL">   -12</i>
    <i type="int" name="NELMIN">     6</i>
    <i name="ENINI">    520.00000000</i>
    <separator name="electronic convergence detail" >
     <i type="logical" name="LDIAG"> T  </i>
     <i type="logical" name="LSUBROT"> F  </i>
     <i name="WEIMIN">      0.00000000</i>
     <i name="EBREAK">      0.00000001</i>
     <i name="DEPER">      0.30000000</i>
     <i type="int" name="NRMM">     4</i>
     <i name="TIME">      0.40000000</i>
    </separator>
   </separator>
   <separator name="electronic mixer" >
    <i name="AMIX">      0.40000000</i>
    <i name="BMIX">      1.00000000</i>
    <i name="AMIN">      0.10000000</i>
    <i name="AMIX_MAG">      1.60000000</i>
    <i name="BMIX_MAG">      1.00000000</i>
    <separator name="electronic mixer details" >
     <i type="int" name="IMIX">     4</i>
     <i type="logical" name="MIXFIRST"> F  </i>
     <i type="int" name="MAXMIX">   -45</i>
     <i name="WC">    100.00000000</i>
     <i type="int" name="INIMIX">     1</i>
     <i type="int" name="MIXPRE">     1</i>
     <i type="int" name="MREMOVE">     5</i>
    </separator>
   </separator>
   <separator name="electronic dipolcorrection" >
    <i type="logical" name="LDIPOL"> T  </i>
    <i type="logical" name="LMONO"> F  </i>
    <i type="int" name="IDIPOL">     3</i>
    <i name="EPSILON">      1.00000000</i>
    <v name="DIPOL">   -100.00000000   -100.00000000   -100.00000000</v>
    <i name="EFIELD">      0.00000000</i>
   </separator>
  </separator>
  <separator name="grids" >
   <i type="int" name="NGX">    72</i>
   <i type="int" name="NGY">    72</i>
   <i type="int" name="NGZ">   250</i>
   <i type="int" name="NGXF">   144</i>
   <i type="int" name="NGYF">   144</i>
   <i type="int" name="NGZF">   500</i>
   <i type="logical" name="ADDGRID"> F  </i>
  </separator>
  <separator name="ionic" >
   <i type="int" name="NSW">     0</i>
   <i type="int" name="IBRION">    -1</i>
   <i type="int" name="MDALGO">     0</i>
   <i type="int" name="ISIF">     2</i>
   <i name="PSTRESS">      0.00000000</i>
   <i name="EDIFFG">      0.00005000</i>
   <i type="int" name="NFREE">     0</i>
   <i name="POTIM">      0.50000000</i>
   <i name="SMASS">     -3.00000000</i>
   <i name="SCALEE">      1.00000000</i>
  </separator>
  <separator name="ionic md" >
   <i name="TEBEG">      0.00010000</i>
   <i name="TEEND">      0.00010000</i>
   <i type="int" name="NBLOCK">     1</i>
   <i type="int" name="KBLOCK">     1</i>
   <i type="int" name="NPACO">   256</i>
   <i name="APACO">     16.00000000</i>
  </separator>
  <separator name="symmetry" >
   <i type="int" name="ISYM">     2</i>
   <i name="SYMPREC">      0.00001000</i>
  </separator>
  <separator name="dos" >
   <i type="int" name="LORBIT">     0</i>
   <v name="RWIGS">     -1.00000000     -1.00000000     -1.00000000</v>
   <i type="int" name="NEDOS">   301</i>
   <i name="EMIN">     10.00000000</i>
   <i name="EMAX">    -10.00000000</i>
   <i name="EFERMI">      0.00000000</i>
  </separator>
  <separator name="writing" >
   <i type="int" name="NWRITE">     2</i>
   <i type="logical" name="LWAVE"> F  </i>
   <i type="logical" name="LDOWNSAMPLE"> F  </i>
   <i type="logical" name="LCHARG"> T  </i>
   <i type="logical" name="LPARD"> F  </i>
   <i type="logical" name="LVTOT"> F  </i>
   <i type="logical" name="LVHAR"> T  </i>
   <i type="logical" name="LELF"> F  </i>
   <i type="logical" name="LOPTICS"> F  </i>
   <v name="STM">      0.00000000      0.00000000      0.00000000      0.00000000      0.00000000      0.00000000      0.00000000</v>
  </separator>
  <separator name="performance" >
   <i type="int" name="NPAR">     3</i>
   <i type="int" name="NSIM">     4</i>
   <i type="int" name="NBLK">    -1</i>
   <i type="logical" name="LPLANE"> T  </i>
   <i type="logical" name="LSCALAPACK"> T  </i>
   <i type="logical" name="LSCAAWARE"> F  </i>
   <i type="logical" name="LSCALU"> F  </i>
   <i type="logical" name="LASYNC"> F  </i>
   <i type="logical" name="LORBITALREAL"> F  </i>
  </separator>
  <separator name="miscellaneous" >
   <i type="int" name="IDIOT">     3</i>
   <i type="int" name="ISPECIAL">     0</i>
   <i type="logical" name="LMUSIC"> F  </i>
   <v name="POMASS">     24.30500000     16.00000000      1.00000000</v>
   <v name="DARWINR">      0.00000000      0.00000000      0.00000000</v>
   <v name="DARWINV">      1.00000000      1.00000000      1.00000000</v>
   <i type="logical" name="LCORR"> T  </i>
  </separator>
  <i type="logical" name="GGA_COMPAT"> T  </i>
  <i type="logical" name="LBERRY"> F  </i>
  <i type="int" name="ICORELEVEL">     0</i>
  <i type="logical" name="LDAU"> F  </i>
  <i type="int" name="I_CONSTRAINED_M">     0</i>
  <separator name="electronic exchange-correlation" >
   <i type="string" name="GGA">BO</i>
   <i type="int" name="VOSKOWN">     0</i>
   <i type="logical" name="LHFCALC"> F  </i>
   <i type="string" name="PRECFOCK"></i>
   <i type="logical" name="LSYMGRAD"> F  </i>
   <i type="logical" name="LHFONE"> F  </i>
   <i type="logical" name="LRHFCALC"> F  </i>
   <i type="logical" name="LTHOMAS"> F  </i>
   <i type="logical" name="LMODELHF"> F  </i>
   <i name="ENCUT4O">     -1.00000000</i>
   <i type="int" name="EXXOEP">     0</i>
   <i type="int" name="FOURORBIT">     0</i>
   <i name="AEXX">      0.00000000</i>
   <i name="HFALPHA">      0.00000000</i>
   <i name="MCALPHA">      0.00000000</i>
   <i name="ALDAX">      1.00000000</i>
   <i name="AGGAX">      1.00000000</i>
   <i name="ALDAC">      1.00000000</i>
   <i name="AGGAC">      0.00000000</i>
   <i type="int" name="NKREDX">     1</i>
   <i type="int" name="NKREDY">     1</i>
   <i type="int" name="NKREDZ">     1</i>
   <i type="logical" name="SHIFTRED"> F  </i>
   <i type="logical" name="ODDONLY"> F  </i>
   <i type="logical" name="EVENONLY"> F  </i>
   <i type="int" name="LMAXFOCK">     0</i>
   <i type="int" name="NMAXFOCKAE">     0</i>
   <i type="logical" name="LFOCKAEDFT"> F  </i>
   <i name="HFSCREEN">      0.00000000</i>
   <i name="HFSCREENC">      0.00000000</i>
   <i type="int" name="NBANDSGWLOW">     0</i>
  </separator>
  <separator name="vdW DFT" >
   <i type="logical" name="LUSE_VDW"> T  </i>
   <i name="Zab_VDW">     -0.84910000</i>
   <i name="PARAM1">      0.18333333</i>
   <i name="PARAM2">      0.22000000</i>
   <i name="PARAM3">      0.00000000</i>
  </separator>
  <separator name="model GW" >
   <i type="int" name="MODEL_GW">     0</i>
   <i name="MODEL_EPS0">     24.57100561</i>
   <i name="MODEL_ALPHA">      1.00000000</i>
  </separator>
  <separator name="linear response parameters" >
   <i type="logical" name="LEPSILON"> F  </i>
   <i type="logical" name="LRPA"> F  </i>
   <i type="logical" name="LNABLA"> F  </i>
   <i type="logical" name="LVEL"> F  </i>
   <i type="int" name="KINTER">     0</i>
   <i name="CSHIFT">      0.10000000</i>
   <i name="OMEGAMAX">     -1.00000000</i>
   <i name="DEG_THRESHOLD">      0.00200000</i>
   <i name="RTIME">     -0.10000000</i>
   <i name="WPLASMAI">      0.00000000</i>
   <v name="DFIELD">      0.00000000      0.00000000      0.00000000</v>
   <v name="WPLASMA">      0.00000000      0.00000000      0.00000000      0.00000000      0.00000000      0.00000000      0.00000000      0.00000000      0.00000000</v>
  </separator>
  <separator name="orbital magnetization" >
   <i type="logical" name="NUCIND"> F  </i>
   <v name="MAGPOS">      0.00000000      0.00000000      0.00000000</v>
   <i type="logical" name="LNICSALL"> T  </i>
   <i type="logical" name="ORBITALMAG"> F  </i>
   <i type="logical" name="LMAGBLOCH"> F  </i>
   <i type="logical" name="LCHIMAG"> F  </i>
   <i type="logical" name="LGAUGE"> T  </i>
   <i type="int" name="MAGATOM">     0</i>
   <v name="MAGDIPOL">      0.00000000      0.00000000      0.00000000</v>
   <v name="AVECCONST">      0.00000000      0.00000000      0.00000000</v>
  </separator>
  <separator name="response functions" >
   <i type="logical" name="LADDER"> F  </i>
   <i type="logical" name="LRPAFORCE"> F  </i>
   <i type="logical" name="LFXC"> F  </i>
   <i type="logical" name="LHARTREE"> T  </i>
   <i type="int" name="IBSE">     0</i>
   <v type="int" name="KPOINT">    -1     0     0     0</v>
   <i type="logical" name="LTCTE"> F  </i>
   <i type="logical" name="LTETE"> F  </i>
   <i type="logical" name="LTRIPLET"> F  </i>
   <i type="logical" name="LFXCEPS"> F  </i>
   <i type="logical" name="LFXHEG"> F  </i>
   <i type="int" name="NATURALO">     2</i>
   <i type="logical" name="L2ORDER"> F  </i>
   <i type="logical" name="LMP2LT"> F  </i>
   <i type="logical" name="LUSEW"> F  </i>
   <i name="ENCUTGW">     -2.00000000</i>
   <i name="ENCUTGWSOFT">     -2.00000000</i>
   <i name="ENCUTLF">     -1.00000000</i>
   <i type="int" name="LMAXMP2">    -1</i>
   <i name="SCISSOR">      0.00000000</i>
   <i type="int" name="NOMEGA">     0</i>
   <i type="int" name="NOMEGAR">     0</i>
   <i type="int" name="NBANDSGW">    -1</i>
   <i type="int" name="NBANDSO">    -1</i>
   <i type="int" name="NBANDSV">    -1</i>
   <i type="int" name="NELM">   300</i>
   <i type="int" name="NELMHF">     1</i>
   <i type="int" name="DIM">     3</i>
   <i type="int" name="ANTIRES">     0</i>
   <i name="OMEGAMAX">    -30.00000000</i>
   <i name="OMEGAMIN">    -30.00000000</i>
   <i name="OMEGATL">   -200.00000000</i>
   <i type="int" name="OMEGAGRID">   140</i>
   <i name="CSHIFT">     -0.10000000</i>
   <i type="logical" name="SELFENERGY"> F  </i>
   <i type="logical" name="LSPECTRAL"> F  </i>
   <i type="logical" name="LSPECTRALGW"> F  </i>
   <i type="logical" name="LSINGLES"> F  </i>
   <i type="logical" name="LFERMIGW"> F  </i>
   <i type="logical" name="ODDONLYGW"> F  </i>
   <i type="logical" name="EVENONLYGW"> F  </i>
   <i type="int" name="NKREDLFX">     1</i>
   <i type="int" name="NKREDLFY">     1</i>
   <i type="int" name="NKREDLFZ">     1</i>
   <i type="int" name="MAXMEM">  2800</i>
   <i type="int" name="TELESCOPE">     0</i>
   <i type="int" name="TAUPAR">     1</i>
   <i type="int" name="OMEGAPAR">    -1</i>
   <i name="LAMBDA">      1.00000000</i>
  </separator>
  <separator name="External order field" >
   <i name="OFIELD_KAPPA">      0.00000000</i>
   <v name="OFIELD_K">      0.00000000      0.00000000      0.00000000</v>
   <i name="OFIELD_Q6_NEAR">      0.00000000</i>
   <i name="OFIELD_Q6_FAR">      0.00000000</i>
   <i name="OFIELD_A">      0.00000000</i>
  </separator>
 </parameters>
 <atominfo>
  <atoms>      63 </atoms>
  <types>       3 </types>
  <array name="atoms" >
   <dimension dim="1">ion</dimension>
   <field type="string">element</field>
   <field type="int">atomtype</field>
   <set>
    <rc><c>Mg</c><c>   1</c></rc>
    <rc><c>Mg</c><c>   1</c></rc>
    <rc><c>Mg</c><c>   1</c></rc>
    <rc><c>Mg</c><c>   1</c></rc>
    <rc><c>Mg</c><c>   1</c></rc>
    <rc><c>Mg</c><c>   1</c></rc>
    <rc><c>Mg</c><c>   1</c></rc>
    <rc><c>Mg</c><c>   1</c></rc>
    <rc><c>Mg</c><c>   1</c></rc>
    <rc><c>Mg</c><c>   1</c></rc>
    <rc><c>Mg</c><c>   1</c></rc>
    <rc><c>Mg</c><c>   1</c></rc>
    <rc><c>Mg</c><c>   1</c></rc>
    <rc><c>Mg</c><c>   1</c></rc>
    <rc><c>Mg</c><c>   1</c></rc>
    <rc><c>Mg</c><c>   1</c></rc>
    <rc><c>Mg</c><c>   1</c></rc>
    <rc><c>Mg</c><c>   1</c></rc>
    <rc><c>Mg</c><c>   1</c></rc>
    <rc><c>Mg</c><c>   1</c></rc>
    <rc><c>Mg</c><c>   1</c></rc>
    <rc><c>Mg</c><c>   1</c></rc>
    <rc><c>Mg</c><c>   1</c></rc>
    <rc><c>Mg</c><c>   1</c></rc>
    <rc><c>Mg</c><c>   1</c></rc>
    <rc><c>Mg</c><c>   1</c></rc>
    <rc><c>Mg</c><c>   1</c></rc>
    <rc><c>Mg</c><c>   1</c></rc>
    <rc><c>Mg</c><c>   1</c></rc>
    <rc><c>Mg</c><c>   1</c></rc>
    <rc><c>Mg</c><c>   1</c></rc>
    <rc><c>Mg</c><c>   1</c></rc>
    <rc><c>Mg</c><c>   1</c></rc>
    <rc><c>Mg</c><c>   1</c></rc>
    <rc><c>Mg</c><c>   1</c></rc>
    <rc><c>Mg</c><c>   1</c></rc>
    <rc><c>Mg</c><c>   1</c></rc>
    <rc><c>Mg</c><c>   1</c></rc>
    <rc><c>Mg</c><c>   1</c></rc>
    <rc><c>Mg</c><c>   1</c></rc>
    <rc><c>Mg</c><c>   1</c></rc>
    <rc><c>Mg</c><c>   1</c></rc>
    <rc><c>Mg</c><c>   1</c></rc>
    <rc><c>Mg</c><c>   1</c></rc>
    <rc><c>Mg</c><c>   1</c></rc>
    <rc><c>O </c><c>   2</c></rc>
    <rc><c>O </c><c>   2</c></rc>
    <rc><c>O </c><c>   2</c></rc>
    <rc><c>O </c><c>   2</c></rc>
    <rc><c>O </c><c>   2</c></rc>
    <rc><c>O </c><c>   2</c></rc>
    <rc><c>H </c><c>   3</c></rc>
    <rc><c>H </c><c>   3</c></rc>
    <rc><c>H </c><c>   3</c></rc>
    <rc><c>H </c><c>   3</c></rc>
    <rc><c>H </c><c>   3</c></rc>
    <rc><c>H </c><c>   3</c></rc>
    <rc><c>H </c><c>   3</c></rc>
    <rc><c>H </c><c>   3</c></rc>
    <rc><c>H </c><c>   3</c></rc>
    <rc><c>H </c><c>   3</c></rc>
    <rc><c>H </c><c>   3</c></rc>
    <rc><c>H </c><c>   3</c></rc>
   </set>
  </array>
  <array name="atomtypes" >
   <dimension dim="1">type</dimension>
   <field type="int">atomspertype</field>
   <field type="string">element</field>
   <field>mass</field>
   <field>valence</field>
   <field type="string">pseudopotential</field>
   <set>
    <rc><c>  45</c><c>Mg</c><c>     24.30500000</c><c>      2.00000000</c><c>  PAW_PBE Mg 13Apr2007                  </c></rc>
    <rc><c>   6</c><c>O </c><c>     16.00000000</c><c>      6.00000000</c><c>  PAW_PBE O 08Apr2002                   </c></rc>
    <rc><c>  12</c><c>H </c><c>      1.00000000</c><c>      1.00000000</c><c>  PAW_PBE H 15Jun2001                   </c></rc>
   </set>
  </array>
 </atominfo>
 <structure name="initialpos" >
  <crystal>
   <varray name="basis" >
    <v>       9.55575275       0.00000000       0.00000000 </v>
    <v>      -4.77787638       8.27552464       0.00000000 </v>
    <v>       0.00000000       0.00000000      32.62509537 </v>
   </varray>
   <i name="volume">   2579.95558872 </i>
   <varray name="rec_basis" >
    <v>       0.10464900       0.06041913       0.00000000 </v>
    <v>       0.00000000       0.12083826       0.00000000 </v>
    <v>       0.00000000       0.00000000       0.03065125 </v>
   </varray>
  </crystal>
  <varray name="positions" >
   <v>       0.00000000       0.00000000       0.00000000 </v>
   <v>       0.99889387       0.00045461       0.15828884 </v>
   <v>       0.00250617       0.00738088       0.33035564 </v>
   <v>       0.00000001       0.33333336       0.00000000 </v>
   <v>       0.00026992       0.33448171       0.15755208 </v>
   <v>       0.99016886       0.33984115       0.31234616 </v>
   <v>       0.00000002       0.66666672       0.00000000 </v>
   <v>       0.99921000       0.66775925       0.15798526 </v>
   <v>       0.01228353       0.68059014       0.31301830 </v>
   <v>       0.33333334       0.00000000       0.00000000 </v>
   <v>       0.33339097       0.00038441       0.15720674 </v>
   <v>       0.33332827       0.01052602       0.30896950 </v>
   <v>       0.33333335       0.33333336       0.00000000 </v>
   <v>       0.33151571       0.33216131       0.15704984 </v>
   <v>       0.31969338       0.32965556       0.31182887 </v>
   <v>       0.33333336       0.66666672       0.00000000 </v>
   <v>       0.33260130       0.66852777       0.15789708 </v>
   <v>       0.32507412       0.68076208       0.32961120 </v>
   <v>       0.66666668       0.00000000       0.00000000 </v>
   <v>       0.66603098       0.99921199       0.15781361 </v>
   <v>       0.67149317       0.01082301       0.31376960 </v>
   <v>       0.66666668       0.33333336       0.00000000 </v>
   <v>       0.66681009       0.33578940       0.15878930 </v>
   <v>       0.66518458       0.33828249       0.33175090 </v>
   <v>       0.66666670       0.66666672       0.00000000 </v>
   <v>       0.66942920       0.66804371       0.15827905 </v>
   <v>       0.66139619       0.67395227       0.32149446 </v>
   <v>       0.11111113       0.22222222       0.07982145 </v>
   <v>       0.10564969       0.22058646       0.23646198 </v>
   <v>       0.11111114       0.55555561       0.07982145 </v>
   <v>       0.11642507       0.55911023       0.23636570 </v>
   <v>       0.11111116       0.88888894       0.07982145 </v>
   <v>       0.10951918       0.89230976       0.23481120 </v>
   <v>       0.44444450       0.22222222       0.07982145 </v>
   <v>       0.44749838       0.23002171       0.23579561 </v>
   <v>       0.44444450       0.55555561       0.07982145 </v>
   <v>       0.44647019       0.55776378       0.23394085 </v>
   <v>       0.44444451       0.88888894       0.07982145 </v>
   <v>       0.44364825       0.88546241       0.23692226 </v>
   <v>       0.77777779       0.22222222       0.07982145 </v>
   <v>       0.77409390       0.22254811       0.23525176 </v>
   <v>       0.77777781       0.55555561       0.07982145 </v>
   <v>       0.77427179       0.55324904       0.24059318 </v>
   <v>       0.77777784       0.88888894       0.07982145 </v>
   <v>       0.77877239       0.88631934       0.23967947 </v>
   <v>       0.00234391       0.00025774       0.39610915 </v>
   <v>       0.30138411       0.97005033       0.41240017 </v>
   <v>       0.88668951       0.21750993       0.41606358 </v>
   <v>       0.60682661       0.28716515       0.39678647 </v>
   <v>       0.68419971       0.57024670       0.37228630 </v>
   <v>       0.35898661       0.70839306       0.39436290 </v>
   <v>       0.96967205       0.07163503       0.41006243 </v>
   <v>       0.09632977       0.00726479       0.41041144 </v>
   <v>       0.39846604       0.07809152       0.40944366 </v>
   <v>       0.26011565       0.94122878       0.38383198 </v>
   <v>       0.98355715       0.32462053       0.41780459 </v>
   <v>       0.86198442       0.20504449       0.38601867 </v>
   <v>       0.62922560       0.40409130       0.39696085 </v>
   <v>       0.69306976       0.28308081       0.41218824 </v>
   <v>       0.78211140       0.64730545       0.38698038 </v>
   <v>       0.42704986       0.55207304       0.32923667 </v>
   <v>       0.35537716       0.80187692       0.40655527 </v>
   <v>       0.45440951       0.70823401       0.40511558 </v>
  </varray>
  <varray name="selective"  type="logical" >
   <v type="logical" >  F  F  F </v>
   <v type="logical" >  T  T  T </v>
   <v type="logical" >  T  T  T </v>
   <v type="logical" >  F  F  F </v>
   <v type="logical" >  T  T  T </v>
   <v type="logical" >  T  T  T </v>
   <v type="logical" >  F  F  F </v>
   <v type="logical" >  T  T  T </v>
   <v type="logical" >  T  T  T </v>
   <v type="logical" >  F  F  F </v>
   <v type="logical" >  T  T  T </v>
   <v type="logical" >  T  T  T </v>
   <v type="logical" >  F  F  F </v>
   <v type="logical" >  T  T  T </v>
   <v type="logical" >  T  T  T </v>
   <v type="logical" >  F  F  F </v>
   <v type="logical" >  T  T  T </v>
   <v type="logical" >  T  T  T </v>
   <v type="logical" >  F  F  F </v>
   <v type="logical" >  T  T  T </v>
   <v type="logical" >  T  T  T </v>
   <v type="logical" >  F  F  F </v>
   <v type="logical" >  T  T  T </v>
   <v type="logical" >  T  T  T </v>
   <v type="logical" >  F  F  F </v>
   <v type="logical" >  T  T  T </v>
   <v type="logical" >  T  T  T </v>
   <v type="logical" >  F  F  F </v>
   <v type="logical" >  T  T  T </v>
   <v type="logical" >  F  F  F </v>
   <v type="logical" >  T  T  T </v>
   <v type="logical" >  F  F  F </v>
   <v type="logical" >  T  T  T </v>
   <v type="logical" >  F  F  F </v>
   <v type="logical" >  T  T  T </v>
   <v type="logical" >  F  F  F </v>
   <v type="logical" >  T  T  T </v>
   <v type="logical" >  F  F  F </v>
   <v type="logical" >  T  T  T </v>
   <v type="logical" >  F  F  F </v>
   <v type="logical" >  T  T  T </v>
   <v type="logical" >  F  F  F </v>
   <v type="logical" >  T  T  T </v>
   <v type="logical" >  F  F  F </v>
   <v type="logical" >  T  T  T </v>
   <v type="logical" >  T  T  T </v>
   <v type="logical" >  T  T  T </v>
   <v type="logical" >  T  T  T </v>
   <v type="logical" >  T  T  T </v>
   <v type="logical" >  T  T  T </v>
   <v type="logical" >  T  T  T </v>
   <v type="logical" >  T  T  T </v>
   <v type="logical" >  T  T  T </v>
   <v type="logical" >  T  T  T </v>
   <v type="logical" >  T  T  T </v>
   <v type="logical" >  T  T  T </v>
   <v type="logical" >  T  T  T </v>
   <v type="logical" >  T  T  T </v>
   <v type="logical" >  T  T  T </v>
   <v type="logical" >  T  T  T </v>
   <v type="logical" >  T  T  T </v>
   <v type="logical" >  T  T  T </v>
   <v type="logical" >  T  T  T </v>
  </varray>
  <nose>
   <v>      -3.00000000       0.00000000       0.00010000       0.00010000 </v>
  </nose>
 </structure>
 <calculation>
  <scstep>
   <time name="diag">    0.49    0.49</time>
   <time name="diis">    1.05    1.06</time>
   <time name="orth">    0.07    0.07</time>
   <time name="total">    7.11    7.28</time>
   <dipole>
    <v name="dipole">      0.00000000       0.00000000      -0.00030933 </v>
    <i name="Tr[quadrupol]">  -1884.03339205 </i>
    <i name="Echarged">      0.00000000 </i>
    <i name="Edipol_quadrupol">      0.00000000 </i>
    <i name="Eion">      0.00000000 </i>
   </dipole>
   <energy>
    <i name="alphaZ">     63.16241019 </i>
    <i name="ewald">  13036.10033751 </i>
    <i name="hartreedc"> -16262.25307722 </i>
    <i name="XCdc">  -2050.97334793 </i>
    <i name="pawpsdc">   5135.15659847 </i>
    <i name="pawaedc">  -2719.01140655 </i>
    <i name="eentropy">      0.00000000 </i>
    <i name="bandstr">    213.49161002 </i>
    <i name="atom">   3827.98814510 </i>
    <i name="e_fr_energy">   1243.66126959 </i>
    <i name="e_wo_entrp">   1243.66126959 </i>
    <i name="e_0_energy">   1243.66126959 </i>
   </energy>
  </scstep>
  <scstep>
   <time name="diag">    0.50    0.51</time>
   <time name="diis">    1.05    1.05</time>
   <time name="orth">    0.07    0.07</time>
   <time name="total">    1.62    1.64</time>
   <dipole>
    <v name="dipole">      0.00000000       0.00000000      -0.00030933 </v>
    <i name="Tr[quadrupol]">  -1884.03339205 </i>
    <i name="Echarged">      0.00000000 </i>
    <i name="Edipol_quadrupol">      0.00000000 </i>
    <i name="Eion">      0.00000000 </i>
   </dipole>
   <energy>
    <i name="e_fr_energy">    545.54118481 </i>
    <i name="e_wo_entrp">    545.54118481 </i>
    <i name="e_0_energy">    545.54118481 </i>
   </energy>
  </scstep>
  <scstep>
   <time name="diag">    0.49    0.51</time>
   <time name="diis">    1.05    1.05</time>
   <time name="orth">    0.07    0.07</time>
   <time name="total">    1.62    1.64</time>
   <dipole>
    <v name="dipole">      0.00000000       0.00000000      -0.00030933 </v>
    <i name="Tr[quadrupol]">  -1884.03339205 </i>
    <i name="Echarged">      0.00000000 </i>
    <i name="Edipol_quadrupol">      0.00000000 </i>
    <i name="Eion">      0.00000000 </i>
   </dipole>
   <energy>
    <i name="e_fr_energy">    310.31298639 </i>
    <i name="e_wo_entrp">    310.31298639 </i>
    <i name="e_0_energy">    310.31298639 </i>
   </energy>
  </scstep>
  <scstep>
   <time name="diag">    0.49    0.51</time>
   <time name="diis">    1.05    1.05</time>
   <time name="orth">    0.07    0.07</time>
   <time name="total">    1.61    1.63</time>
   <dipole>
    <v name="dipole">      0.00000000       0.00000000      -0.00030933 </v>
    <i name="Tr[quadrupol]">  -1884.03339205 </i>
    <i name="Echarged">      0.00000000 </i>
    <i name="Edipol_quadrupol">      0.00000000 </i>
    <i name="Eion">      0.00000000 </i>
   </dipole>
   <energy>
    <i name="e_fr_energy">    138.03471628 </i>
    <i name="e_wo_entrp">    138.03471628 </i>
    <i name="e_0_energy">    138.03471628 </i>
   </energy>
  </scstep>
  <scstep>
   <time name="diag">    0.49    0.51</time>
   <time name="diis">    1.05    1.05</time>
   <time name="orth">    0.07    0.07</time>
   <time name="total">    1.62    1.64</time>
   <dipole>
    <v name="dipole">      0.00000000       0.00000000      -0.00030933 </v>
    <i name="Tr[quadrupol]">  -1884.03339205 </i>
    <i name="Echarged">      0.00000000 </i>
    <i name="Edipol_quadrupol">      0.00000000 </i>
    <i name="Eion">      0.00000000 </i>
   </dipole>
   <energy>
    <i name="e_fr_energy">     22.52851187 </i>
    <i name="e_wo_entrp">     22.52851187 </i>
    <i name="e_0_energy">     22.52851187 </i>
   </energy>
  </scstep>
  <scstep>
   <time name="diag">    0.49    0.52</time>
   <time name="diis">    1.06    1.06</time>
   <time name="orth">    0.07    0.07</time>
   <time name="total">    1.63    1.65</time>
   <dipole>
    <v name="dipole">      0.00000000       0.00000000      -0.00030933 </v>
    <i name="Tr[quadrupol]">  -1884.03339205 </i>
    <i name="Echarged">      0.00000000 </i>
    <i name="Edipol_quadrupol">      0.00000000 </i>
    <i name="Eion">      0.00000000 </i>
   </dipole>
   <energy>
    <i name="e_fr_energy">    -42.32926493 </i>
    <i name="e_wo_entrp">    -42.32926493 </i>
    <i name="e_0_energy">    -42.32926493 </i>
   </energy>
  </scstep>
  <scstep>
   <time name="diag">    0.49    0.51</time>
   <time name="diis">    1.06    1.06</time>
   <time name="orth">    0.07    0.07</time>
   <time name="total">    1.62    1.65</time>
   <dipole>
    <v name="dipole">      0.00000000       0.00000000      -0.00030933 </v>
    <i name="Tr[quadrupol]">  -1884.03339205 </i>
    <i name="Echarged">      0.00000000 </i>
    <i name="Edipol_quadrupol">      0.00000000 </i>
    <i name="Eion">      0.00000000 </i>
   </dipole>
   <energy>
    <i name="e_fr_energy">    -70.27994589 </i>
    <i name="e_wo_entrp">    -70.27994589 </i>
    <i name="e_0_energy">    -70.27994589 </i>
   </energy>
  </scstep>
  <scstep>
   <time name="diag">    0.49    0.51</time>
   <time name="diis">    1.05    1.05</time>
   <time name="orth">    0.07    0.07</time>
   <time name="total">    1.61    1.64</time>
   <dipole>
    <v name="dipole">      0.00000000       0.00000000      -0.00030933 </v>
    <i name="Tr[quadrupol]">  -1884.03339205 </i>
    <i name="Echarged">      0.00000000 </i>
    <i name="Edipol_quadrupol">      0.00000000 </i>
    <i name="Eion">      0.00000000 </i>
   </dipole>
   <energy>
    <i name="e_fr_energy">    -77.94529357 </i>
    <i name="e_wo_entrp">    -77.94529357 </i>
    <i name="e_0_energy">    -77.94529357 </i>
   </energy>
  </scstep>
  <scstep>
   <time name="diag">    0.49    0.51</time>
   <time name="diis">    2.69    2.69</time>
   <time name="orth">    0.07    0.07</time>
   <time name="total">    3.26    3.28</time>
   <dipole>
    <v name="dipole">      0.00000000       0.00000000      -0.00030933 </v>
    <i name="Tr[quadrupol]">  -1884.03339205 </i>
    <i name="Echarged">      0.00000000 </i>
    <i name="Edipol_quadrupol">      0.00000000 </i>
    <i name="Eion">      0.00000000 </i>
   </dipole>
   <energy>
    <i name="e_fr_energy">    -80.26768346 </i>
    <i name="e_wo_entrp">    -80.26768346 </i>
    <i name="e_0_energy">    -80.26768346 </i>
   </energy>
  </scstep>
  <scstep>
   <time name="diag">    0.54    0.56</time>
   <time name="diis">    3.26    3.26</time>
   <time name="orth">    0.07    0.07</time>
   <time name="total">    3.87    3.89</time>
   <dipole>
    <v name="dipole">      0.00000000       0.00000000      -0.00030933 </v>
    <i name="Tr[quadrupol]">  -1884.03339205 </i>
    <i name="Echarged">      0.00000000 </i>
    <i name="Edipol_quadrupol">      0.00000000 </i>
    <i name="Eion">      0.00000000 </i>
   </dipole>
   <energy>
    <i name="e_fr_energy">    -80.56628537 </i>
    <i name="e_wo_entrp">    -80.56628537 </i>
    <i name="e_0_energy">    -80.56628537 </i>
   </energy>
  </scstep>
  <scstep>
   <time name="diag">    0.49    0.51</time>
   <time name="diis">    3.12    3.12</time>
   <time name="orth">    0.07    0.07</time>
   <time name="total">    3.69    3.71</time>
   <dipole>
    <v name="dipole">      0.00000000       0.00000000      -0.00030933 </v>
    <i name="Tr[quadrupol]">  -1884.03339205 </i>
    <i name="Echarged">      0.00000000 </i>
    <i name="Edipol_quadrupol">      0.00000000 </i>
    <i name="Eion">      0.00000000 </i>
   </dipole>
   <energy>
    <i name="e_fr_energy">    -80.56512995 </i>
    <i name="e_wo_entrp">    -80.56512995 </i>
    <i name="e_0_energy">    -80.56512995 </i>
   </energy>
  </scstep>
  <scstep>
   <time name="diag">    0.50    0.51</time>
   <time name="diis">    3.27    3.27</time>
   <time name="orth">    0.07    0.07</time>
   <time name="total">    3.98    3.99</time>
   <dipole>
    <v name="dipole">      0.00000000       0.00000000      -0.00030933 </v>
    <i name="Tr[quadrupol]">  -1884.03339205 </i>
    <i name="Echarged">      0.00000000 </i>
    <i name="Edipol_quadrupol">      0.00000000 </i>
    <i name="Eion">      0.00000000 </i>
   </dipole>
   <energy>
    <i name="e_fr_energy">    -80.56753550 </i>
    <i name="e_wo_entrp">    -80.56753550 </i>
    <i name="e_0_energy">    -80.56753550 </i>
   </energy>
  </scstep>
  <scstep>
   <time name="diag">    0.49    0.49</time>
   <time name="diis">    2.64    2.64</time>
   <time name="orth">    0.07    0.07</time>
   <time name="total">    8.56    8.60</time>
   <dipole>
    <v name="dipole">      0.00000000       0.00000000       0.48544600 </v>
    <i name="Tr[quadrupol]">  -1895.76423710 </i>
    <i name="Echarged">      0.00000000 </i>
    <i name="Edipol_quadrupol">      0.00000000 </i>
    <i name="Eion">      0.00000000 </i>
   </dipole>
   <energy>
    <i name="e_fr_energy">    -70.55299005 </i>
    <i name="e_wo_entrp">    -70.55299005 </i>
    <i name="e_0_energy">    -70.55299005 </i>
   </energy>
  </scstep>
  <scstep>
   <time name="diag">    0.48    0.48</time>
   <time name="diis">    2.98    2.98</time>
   <time name="orth">    0.07    0.07</time>
   <time name="total">    8.72    8.74</time>
   <dipole>
    <v name="dipole">      0.00000000       0.00000000      -1.94403771 </v>
    <i name="Tr[quadrupol]">  -1881.88152319 </i>
    <i name="Echarged">      0.00000000 </i>
    <i name="Edipol_quadrupol">      0.00000000 </i>
    <i name="Eion">      0.00000000 </i>
   </dipole>
   <energy>
    <i name="e_fr_energy">    -92.35876641 </i>
    <i name="e_wo_entrp">    -92.35876641 </i>
    <i name="e_0_energy">    -92.35876641 </i>
   </energy>
  </scstep>
  <scstep>
   <time name="diag">    0.49    0.49</time>
   <time name="diis">    2.84    2.84</time>
   <time name="orth">    0.07    0.07</time>
   <time name="total">    8.80    8.83</time>
   <dipole>
    <v name="dipole">      0.00000000       0.00000000       0.07988637 </v>
    <i name="Tr[quadrupol]">  -1893.85791470 </i>
    <i name="Echarged">      0.00000000 </i>
    <i name="Edipol_quadrupol">      0.00000000 </i>
    <i name="Eion">      0.00000000 </i>
   </dipole>
   <energy>
    <i name="e_fr_energy">    -69.32648812 </i>
    <i name="e_wo_entrp">    -69.32648812 </i>
    <i name="e_0_energy">    -69.32648812 </i>
   </energy>
  </scstep>
  <scstep>
   <time name="diag">    0.48    0.48</time>
   <time name="diis">    2.91    2.91</time>
   <time name="orth">    0.07    0.07</time>
   <time name="total">    8.68    8.71</time>
   <dipole>
    <v name="dipole">      0.00000000       0.00000000       0.06347641 </v>
    <i name="Tr[quadrupol]">  -1898.92962130 </i>
    <i name="Echarged">      0.00000000 </i>
    <i name="Edipol_quadrupol">      0.00000000 </i>
    <i name="Eion">      0.00000000 </i>
   </dipole>
   <energy>
    <i name="e_fr_energy">    -69.28266557 </i>
    <i name="e_wo_entrp">    -69.28266557 </i>
    <i name="e_0_energy">    -69.28266557 </i>
   </energy>
  </scstep>
  <scstep>
   <time name="diag">    0.48    0.48</time>
   <time name="diis">    2.44    2.44</time>
   <time name="orth">    0.07    0.07</time>
   <time name="total">    8.28    8.31</time>
   <dipole>
    <v name="dipole">      0.00000000       0.00000000      -0.29081464 </v>
    <i name="Tr[quadrupol]">  -1897.22952848 </i>
    <i name="Echarged">      0.00000000 </i>
    <i name="Edipol_quadrupol">      0.00000000 </i>
    <i name="Eion">      0.00000000 </i>
   </dipole>
   <energy>
    <i name="e_fr_energy">    -68.96027864 </i>
    <i name="e_wo_entrp">    -68.96027864 </i>
    <i name="e_0_energy">    -68.96027864 </i>
   </energy>
  </scstep>
  <scstep>
   <time name="diag">    0.48    0.48</time>
   <time name="diis">    2.87    2.87</time>
   <time name="orth">    0.07    0.07</time>
   <time name="total">    8.61    8.64</time>
   <dipole>
    <v name="dipole">      0.00000000       0.00000000      -0.33904019 </v>
    <i name="Tr[quadrupol]">  -1898.04692408 </i>
    <i name="Echarged">      0.00000000 </i>
    <i name="Edipol_quadrupol">      0.00000000 </i>
    <i name="Eion">      0.00000000 </i>
   </dipole>
   <energy>
    <i name="e_fr_energy">    -68.93671892 </i>
    <i name="e_wo_entrp">    -68.93671892 </i>
    <i name="e_0_energy">    -68.93671892 </i>
   </energy>
  </scstep>
  <scstep>
   <time name="diag">    0.48    0.48</time>
   <time name="diis">    2.50    2.50</time>
   <time name="orth">    0.07    0.07</time>
   <time name="total">    8.25    8.28</time>
   <dipole>
    <v name="dipole">      0.00000000       0.00000000      -0.36111155 </v>
    <i name="Tr[quadrupol]">  -1899.34003447 </i>
    <i name="Echarged">      0.00000000 </i>
    <i name="Edipol_quadrupol">      0.00000000 </i>
    <i name="Eion">      0.00000000 </i>
   </dipole>
   <energy>
    <i name="e_fr_energy">    -68.93474018 </i>
    <i name="e_wo_entrp">    -68.93474018 </i>
    <i name="e_0_energy">    -68.93474018 </i>
   </energy>
  </scstep>
  <scstep>
   <time name="diag">    0.48    0.48</time>
   <time name="diis">    2.68    2.68</time>
   <time name="orth">    0.07    0.07</time>
   <time name="total">    8.42    8.45</time>
   <dipole>
    <v name="dipole">      0.00000000       0.00000000      -0.39095500 </v>
    <i name="Tr[quadrupol]">  -1899.63811775 </i>
    <i name="Echarged">      0.00000000 </i>
    <i name="Edipol_quadrupol">      0.00000000 </i>
    <i name="Eion">      0.00000000 </i>
   </dipole>
   <energy>
    <i name="e_fr_energy">    -68.93438857 </i>
    <i name="e_wo_entrp">    -68.93438857 </i>
    <i name="e_0_energy">    -68.93438857 </i>
   </energy>
  </scstep>
  <scstep>
   <time name="diag">    0.48    0.48</time>
   <time name="diis">    2.70    2.70</time>
   <time name="orth">    0.07    0.07</time>
   <time name="total">    8.44    8.47</time>
   <dipole>
    <v name="dipole">      0.00000000       0.00000000      -0.38894156 </v>
    <i name="Tr[quadrupol]">  -1900.27384998 </i>
    <i name="Echarged">      0.00000000 </i>
    <i name="Edipol_quadrupol">      0.00000000 </i>
    <i name="Eion">      0.00000000 </i>
   </dipole>
   <energy>
    <i name="e_fr_energy">    -68.93193554 </i>
    <i name="e_wo_entrp">    -68.93193554 </i>
    <i name="e_0_energy">    -68.93193554 </i>
   </energy>
  </scstep>
  <scstep>
   <time name="diag">    0.48    0.48</time>
   <time name="diis">    2.67    2.67</time>
   <time name="orth">    0.07    0.07</time>
   <time name="total">    8.44    8.47</time>
   <dipole>
    <v name="dipole">      0.00000000       0.00000000      -0.38526943 </v>
    <i name="Tr[quadrupol]">  -1900.53518140 </i>
    <i name="Echarged">      0.00000000 </i>
    <i name="Edipol_quadrupol">      0.00000000 </i>
    <i name="Eion">      0.00000000 </i>
   </dipole>
   <energy>
    <i name="e_fr_energy">    -68.92696011 </i>
    <i name="e_wo_entrp">    -68.92696011 </i>
    <i name="e_0_energy">    -68.92696011 </i>
   </energy>
  </scstep>
  <scstep>
   <time name="diag">    0.48    0.48</time>
   <time name="diis">    2.28    2.28</time>
   <time name="orth">    0.07    0.07</time>
   <time name="total">    8.06    8.08</time>
   <dipole>
    <v name="dipole">      0.00000000       0.00000000      -0.38268611 </v>
    <i name="Tr[quadrupol]">  -1900.73144000 </i>
    <i name="Echarged">      0.00000000 </i>
    <i name="Edipol_quadrupol">      0.00000000 </i>
    <i name="Eion">      0.00000000 </i>
   </dipole>
   <energy>
    <i name="e_fr_energy">    -68.92162897 </i>
    <i name="e_wo_entrp">    -68.92162897 </i>
    <i name="e_0_energy">    -68.92162897 </i>
   </energy>
  </scstep>
  <scstep>
   <time name="diag">    0.48    0.48</time>
   <time name="diis">    2.10    2.10</time>
   <time name="orth">    0.07    0.07</time>
   <time name="total">    7.84    7.86</time>
   <dipole>
    <v name="dipole">      0.00000000       0.00000000      -0.37268461 </v>
    <i name="Tr[quadrupol]">  -1900.99885988 </i>
    <i name="Echarged">      0.00000000 </i>
    <i name="Edipol_quadrupol">      0.00000000 </i>
    <i name="Eion">      0.00000000 </i>
   </dipole>
   <energy>
    <i name="e_fr_energy">    -68.92218398 </i>
    <i name="e_wo_entrp">    -68.92218398 </i>
    <i name="e_0_energy">    -68.92218398 </i>
   </energy>
  </scstep>
  <scstep>
   <time name="diag">    0.48    0.48</time>
   <time name="diis">    2.01    2.01</time>
   <time name="orth">    0.07    0.07</time>
   <time name="total">    7.77    7.79</time>
   <dipole>
    <v name="dipole">      0.00000000       0.00000000      -0.36595651 </v>
    <i name="Tr[quadrupol]">  -1901.11198694 </i>
    <i name="Echarged">      0.00000000 </i>
    <i name="Edipol_quadrupol">      0.00000000 </i>
    <i name="Eion">      0.00000000 </i>
   </dipole>
   <energy>
    <i name="e_fr_energy">    -68.92312805 </i>
    <i name="e_wo_entrp">    -68.92312805 </i>
    <i name="e_0_energy">    -68.92312805 </i>
   </energy>
  </scstep>
  <scstep>
   <time name="diag">    0.47    0.47</time>
   <time name="diis">    2.01    2.01</time>
   <time name="orth">    0.07    0.07</time>
   <time name="total">    7.95    7.98</time>
   <dipole>
    <v name="dipole">      0.00000000       0.00000000      -0.35966808 </v>
    <i name="Tr[quadrupol]">  -1901.17493235 </i>
    <i name="Echarged">      0.00000000 </i>
    <i name="Edipol_quadrupol">      0.00000000 </i>
    <i name="Eion">      0.00000000 </i>
   </dipole>
   <energy>
    <i name="e_fr_energy">    -68.92297633 </i>
    <i name="e_wo_entrp">    -68.92297633 </i>
    <i name="e_0_energy">    -68.92297633 </i>
   </energy>
  </scstep>
  <scstep>
   <time name="diag">    0.48    0.48</time>
   <time name="diis">    1.82    1.82</time>
   <time name="orth">    0.07    0.07</time>
   <time name="total">    7.58    7.61</time>
   <dipole>
    <v name="dipole">      0.00000000       0.00000000      -0.35791581 </v>
    <i name="Tr[quadrupol]">  -1901.22344086 </i>
    <i name="Echarged">      0.00000000 </i>
    <i name="Edipol_quadrupol">      0.00000000 </i>
    <i name="Eion">      0.00000000 </i>
   </dipole>
   <energy>
    <i name="e_fr_energy">    -68.92290976 </i>
    <i name="e_wo_entrp">    -68.92290976 </i>
    <i name="e_0_energy">    -68.92290976 </i>
   </energy>
  </scstep>
  <scstep>
   <time name="diag">    0.48    0.48</time>
   <time name="diis">    1.72    1.72</time>
   <time name="orth">    0.07    0.07</time>
   <time name="total">    7.47    7.49</time>
   <dipole>
    <v name="dipole">      0.00000000       0.00000000      -0.35605598 </v>
    <i name="Tr[quadrupol]">  -1901.21769114 </i>
    <i name="Echarged">      0.00000000 </i>
    <i name="Edipol_quadrupol">      0.00000000 </i>
    <i name="Eion">      0.00000000 </i>
   </dipole>
   <energy>
    <i name="e_fr_energy">    -68.92292662 </i>
    <i name="e_wo_entrp">    -68.92292662 </i>
    <i name="e_0_energy">    -68.92292662 </i>
   </energy>
  </scstep>
  <scstep>
   <time name="diag">    0.48    0.48</time>
   <time name="diis">    1.64    1.64</time>
   <time name="orth">    0.07    0.07</time>
   <time name="total">    7.39    7.42</time>
   <dipole>
    <v name="dipole">      0.00000000       0.00000000      -0.35590006 </v>
    <i name="Tr[quadrupol]">  -1901.12144382 </i>
    <i name="Echarged">      0.00000000 </i>
    <i name="Edipol_quadrupol">      0.00000000 </i>
    <i name="Eion">      0.00000000 </i>
   </dipole>
   <energy>
    <i name="e_fr_energy">    -68.92294188 </i>
    <i name="e_wo_entrp">    -68.92294188 </i>
    <i name="e_0_energy">    -68.92294188 </i>
   </energy>
  </scstep>
  <scstep>
   <time name="diag">    0.48    0.48</time>
   <time name="diis">    1.61    1.61</time>
   <time name="orth">    0.07    0.07</time>
   <time name="total">    7.39    7.41</time>
   <dipole>
    <v name="dipole">      0.00000000       0.00000000      -0.35566952 </v>
    <i name="Tr[quadrupol]">  -1901.58287047 </i>
    <i name="Echarged">      0.00000000 </i>
    <i name="Edipol_quadrupol">      0.00000000 </i>
    <i name="Eion">      0.00000000 </i>
   </dipole>
   <energy>
    <i name="e_fr_energy">    -68.92295408 </i>
    <i name="e_wo_entrp">    -68.92295408 </i>
    <i name="e_0_energy">    -68.92295408 </i>
   </energy>
  </scstep>
  <scstep>
   <time name="diag">    0.48    0.48</time>
   <time name="diis">    1.54    1.54</time>
   <time name="orth">    0.07    0.07</time>
   <time name="total">    7.30    7.33</time>
   <dipole>
    <v name="dipole">      0.00000000       0.00000000      -0.35633419 </v>
    <i name="Tr[quadrupol]">  -1901.62624477 </i>
    <i name="Echarged">      0.00000000 </i>
    <i name="Edipol_quadrupol">      0.00000000 </i>
    <i name="Eion">      0.00000000 </i>
   </dipole>
   <energy>
    <i name="e_fr_energy">    -68.92301260 </i>
    <i name="e_wo_entrp">    -68.92301260 </i>
    <i name="e_0_energy">    -68.92301260 </i>
   </energy>
  </scstep>
  <scstep>
   <time name="diag">    0.48    0.48</time>
   <time name="diis">    1.51    1.51</time>
   <time name="orth">    0.07    0.07</time>
   <time name="total">    7.34    7.37</time>
   <dipole>
    <v name="dipole">      0.00000000       0.00000000      -0.35656411 </v>
    <i name="Tr[quadrupol]">  -1901.62734601 </i>
    <i name="Echarged">      0.00000000 </i>
    <i name="Edipol_quadrupol">      0.00000000 </i>
    <i name="Eion">      0.00000000 </i>
   </dipole>
   <energy>
    <i name="e_fr_energy">    -68.92301831 </i>
    <i name="e_wo_entrp">    -68.92301831 </i>
    <i name="e_0_energy">    -68.92301831 </i>
   </energy>
  </scstep>
  <scstep>
   <time name="diag">    0.48    0.48</time>
   <time name="diis">    1.83    1.83</time>
   <time name="orth">    0.07    0.07</time>
   <time name="total">    7.67    7.70</time>
   <dipole>
    <v name="dipole">      0.00000000       0.00000000      -0.35678328 </v>
    <i name="Tr[quadrupol]">  -1901.62804108 </i>
    <i name="Echarged">      0.00000000 </i>
    <i name="Edipol_quadrupol">      0.00000000 </i>
    <i name="Eion">      0.00000000 </i>
   </dipole>
   <energy>
    <i name="e_fr_energy">    -68.92299270 </i>
    <i name="e_wo_entrp">    -68.92299270 </i>
    <i name="e_0_energy">    -68.92299270 </i>
   </energy>
  </scstep>
  <scstep>
   <time name="diag">    0.47    0.47</time>
   <time name="diis">    2.00    2.00</time>
   <time name="orth">    0.07    0.07</time>
   <time name="total">    7.74    7.77</time>
   <dipole>
    <v name="dipole">      0.00000000       0.00000000      -0.35707533 </v>
    <i name="Tr[quadrupol]">  -1901.67557925 </i>
    <i name="Echarged">      0.00000000 </i>
    <i name="Edipol_quadrupol">      0.00000000 </i>
    <i name="Eion">      0.00000000 </i>
   </dipole>
   <energy>
    <i name="e_fr_energy">    -68.92297433 </i>
    <i name="e_wo_entrp">    -68.92297433 </i>
    <i name="e_0_energy">    -68.92297433 </i>
   </energy>
  </scstep>
  <scstep>
   <time name="diag">    0.48    0.48</time>
   <time name="diis">    2.17    2.18</time>
   <time name="orth">    0.07    0.07</time>
   <time name="total">    7.93    7.96</time>
   <dipole>
    <v name="dipole">      0.00000000       0.00000000      -0.35724414 </v>
    <i name="Tr[quadrupol]">  -1901.72274111 </i>
    <i name="Echarged">      0.00000000 </i>
    <i name="Edipol_quadrupol">      0.00000000 </i>
    <i name="Eion">      0.00000000 </i>
   </dipole>
   <energy>
    <i name="e_fr_energy">    -68.92296251 </i>
    <i name="e_wo_entrp">    -68.92296251 </i>
    <i name="e_0_energy">    -68.92296251 </i>
   </energy>
  </scstep>
  <scstep>
   <time name="diag">    0.48    0.48</time>
   <time name="diis">    2.28    2.28</time>
   <time name="orth">    0.07    0.07</time>
   <time name="total">    8.04    8.06</time>
   <dipole>
    <v name="dipole">      0.00000000       0.00000000      -0.35733922 </v>
    <i name="Tr[quadrupol]">  -1901.86248421 </i>
    <i name="Echarged">      0.00000000 </i>
    <i name="Edipol_quadrupol">      0.00000000 </i>
    <i name="Eion">      0.00000000 </i>
   </dipole>
   <energy>
    <i name="e_fr_energy">    -68.92294861 </i>
    <i name="e_wo_entrp">    -68.92294861 </i>
    <i name="e_0_energy">    -68.92294861 </i>
   </energy>
  </scstep>
  <scstep>
   <time name="diag">    0.48    0.48</time>
   <time name="diis">    2.21    2.22</time>
   <time name="orth">    0.07    0.07</time>
   <time name="total">    7.98    8.00</time>
   <dipole>
    <v name="dipole">      0.00000000       0.00000000      -0.35732606 </v>
    <i name="Tr[quadrupol]">  -1901.95572385 </i>
    <i name="Echarged">      0.00000000 </i>
    <i name="Edipol_quadrupol">      0.00000000 </i>
    <i name="Eion">      0.00000000 </i>
   </dipole>
   <energy>
    <i name="e_fr_energy">    -68.92295748 </i>
    <i name="e_wo_entrp">    -68.92295748 </i>
    <i name="e_0_energy">    -68.92295748 </i>
   </energy>
  </scstep>
  <scstep>
   <time name="diag">    0.48    0.48</time>
   <time name="diis">    2.16    2.16</time>
   <time name="orth">    0.07    0.07</time>
   <time name="total">    8.09    8.11</time>
   <dipole>
    <v name="dipole">      0.00000000       0.00000000      -0.35733735 </v>
    <i name="Tr[quadrupol]">  -1902.04862875 </i>
    <i name="Echarged">      0.00000000 </i>
    <i name="Edipol_quadrupol">      0.00000000 </i>
    <i name="Eion">      0.00000000 </i>
   </dipole>
   <energy>
    <i name="e_fr_energy">    -68.92296014 </i>
    <i name="e_wo_entrp">    -68.92296014 </i>
    <i name="e_0_energy">    -68.92296014 </i>
   </energy>
  </scstep>
  <scstep>
   <time name="diag">    0.48    0.48</time>
   <time name="diis">    2.14    2.14</time>
   <time name="orth">    0.07    0.07</time>
   <time name="total">    7.89    7.92</time>
   <dipole>
    <v name="dipole">      0.00000000       0.00000000      -0.35735197 </v>
    <i name="Tr[quadrupol]">  -1902.14175959 </i>
    <i name="Echarged">      0.00000000 </i>
    <i name="Edipol_quadrupol">      0.00000000 </i>
    <i name="Eion">      0.00000000 </i>
   </dipole>
   <energy>
    <i name="e_fr_energy">    -68.92296670 </i>
    <i name="e_wo_entrp">    -68.92296670 </i>
    <i name="e_0_energy">    -68.92296670 </i>
   </energy>
  </scstep>
  <scstep>
   <time name="diag">    0.48    0.48</time>
   <time name="diis">    2.05    2.05</time>
   <time name="orth">    0.07    0.07</time>
   <time name="total">    7.67    7.70</time>
   <dipole>
    <v name="dipole">      0.00000000       0.00000000      -0.35734655 </v>
    <i name="Tr[quadrupol]">  -1902.18838958 </i>
    <i name="Echarged">      0.00000000 </i>
    <i name="Edipol_quadrupol">      0.00000000 </i>
    <i name="Eion">      0.00000000 </i>
   </dipole>
   <energy>
    <i name="alphaZ">     67.19528529 </i>
    <i name="ewald">  13036.10033751 </i>
    <i name="hartreedc"> -16502.17649296 </i>
    <i name="XCdc">  -2034.68604377 </i>
    <i name="pawpsdc">   5962.04760840 </i>
    <i name="pawaedc">  -3548.32956966 </i>
    <i name="eentropy">      0.00000000 </i>
    <i name="bandstr">   -877.06224068 </i>
    <i name="atom">   3827.98814510 </i>
    <i name="e_fr_energy">    -68.92297077 </i>
    <i name="e_wo_entrp">    -68.92297077 </i>
    <i name="e_0_energy">    -68.92297077 </i>
   </energy>
  </scstep>
  <structure>
   <crystal>
    <varray name="basis" >
     <v>       9.55575275       0.00000000       0.00000000 </v>
     <v>      -4.77787638       8.27552464       0.00000000 </v>
     <v>       0.00000000       0.00000000      32.62509537 </v>
    </varray>
    <i name="volume">   2579.95558872 </i>
    <varray name="rec_basis" >
     <v>       0.10464900       0.06041913       0.00000000 </v>
     <v>       0.00000000       0.12083826       0.00000000 </v>
     <v>       0.00000000       0.00000000       0.03065125 </v>
    </varray>
   </crystal>
   <varray name="positions" >
    <v>       0.00000000       0.00000000       0.00000000 </v>
    <v>       0.99889387       0.00045461       0.15828884 </v>
    <v>       0.00250617       0.00738088       0.33035564 </v>
    <v>       0.00000001       0.33333336       0.00000000 </v>
    <v>       0.00026992       0.33448171       0.15755208 </v>
    <v>       0.99016886       0.33984115       0.31234616 </v>
    <v>       0.00000002       0.66666672       0.00000000 </v>
    <v>       0.99921000       0.66775925       0.15798526 </v>
    <v>       0.01228353       0.68059014       0.31301830 </v>
    <v>       0.33333334       0.00000000       0.00000000 </v>
    <v>       0.33339097       0.00038441       0.15720674 </v>
    <v>       0.33332827       0.01052602       0.30896950 </v>
    <v>       0.33333335       0.33333336       0.00000000 </v>
    <v>       0.33151571       0.33216131       0.15704984 </v>
    <v>       0.31969338       0.32965556       0.31182887 </v>
    <v>       0.33333336       0.66666672       0.00000000 </v>
    <v>       0.33260130       0.66852777       0.15789708 </v>
    <v>       0.32507412       0.68076208       0.32961120 </v>
    <v>       0.66666668       0.00000000       0.00000000 </v>
    <v>       0.66603098       0.99921199       0.15781361 </v>
    <v>       0.67149317       0.01082301       0.31376960 </v>
    <v>       0.66666668       0.33333336       0.00000000 </v>
    <v>       0.66681009       0.33578940       0.15878930 </v>
    <v>       0.66518458       0.33828249       0.33175090 </v>
    <v>       0.66666670       0.66666672       0.00000000 </v>
    <v>       0.66942920       0.66804371       0.15827905 </v>
    <v>       0.66139619       0.67395227       0.32149446 </v>
    <v>       0.11111113       0.22222222       0.07982145 </v>
    <v>       0.10564969       0.22058646       0.23646198 </v>
    <v>       0.11111114       0.55555561       0.07982145 </v>
    <v>       0.11642507       0.55911023       0.23636570 </v>
    <v>       0.11111116       0.88888894       0.07982145 </v>
    <v>       0.10951918       0.89230976       0.23481120 </v>
    <v>       0.44444450       0.22222222       0.07982145 </v>
    <v>       0.44749838       0.23002171       0.23579561 </v>
    <v>       0.44444450       0.55555561       0.07982145 </v>
    <v>       0.44647019       0.55776378       0.23394085 </v>
    <v>       0.44444451       0.88888894       0.07982145 </v>
    <v>       0.44364825       0.88546241       0.23692226 </v>
    <v>       0.77777779       0.22222222       0.07982145 </v>
    <v>       0.77409390       0.22254811       0.23525176 </v>
    <v>       0.77777781       0.55555561       0.07982145 </v>
    <v>       0.77427179       0.55324904       0.24059318 </v>
    <v>       0.77777784       0.88888894       0.07982145 </v>
    <v>       0.77877239       0.88631934       0.23967947 </v>
    <v>       0.00234391       0.00025774       0.39610915 </v>
    <v>       0.30138411       0.97005033       0.41240017 </v>
    <v>       0.88668951       0.21750993       0.41606358 </v>
    <v>       0.60682661       0.28716515       0.39678647 </v>
    <v>       0.68419971       0.57024670       0.37228630 </v>
    <v>       0.35898661       0.70839306       0.39436290 </v>
    <v>       0.96967205       0.07163503       0.41006243 </v>
    <v>       0.09632977       0.00726479       0.41041144 </v>
    <v>       0.39846604       0.07809152       0.40944366 </v>
    <v>       0.26011565       0.94122878       0.38383198 </v>
    <v>       0.98355715       0.32462053       0.41780459 </v>
    <v>       0.86198442       0.20504449       0.38601867 </v>
    <v>       0.62922560       0.40409130       0.39696085 </v>
    <v>       0.69306976       0.28308081       0.41218824 </v>
    <v>       0.78211140       0.64730545       0.38698038 </v>
    <v>       0.42704986       0.55207304       0.32923667 </v>
    <v>       0.35537716       0.80187692       0.40655527 </v>
    <v>       0.45440951       0.70823401       0.40511558 </v>
   </varray>
  </structure>
  <varray name="forces" >
   <v>       0.01253666      -0.02677658       0.00103533 </v>
   <v>       0.01530884      -0.00822371       0.00251646 </v>
   <v>       0.00248702      -0.00916604      -0.00340997 </v>
   <v>      -0.05065929      -0.01578821      -0.03273160 </v>
   <v>      -0.00045573       0.00148211      -0.00707048 </v>
   <v>      -0.01981607       0.00166482       0.01862556 </v>
   <v>       0.01736862       0.02671255      -0.01619205 </v>
   <v>      -0.00764063       0.01468883      -0.00379510 </v>
   <v>       0.01256052       0.02799068      -0.00422607 </v>
   <v>      -0.01654953      -0.02245964      -0.01681709 </v>
   <v>      -0.01120900      -0.00560936      -0.00076562 </v>
   <v>      -0.02385729       0.00454825      -0.00089505 </v>
   <v>       0.01258673       0.00667551      -0.02856759 </v>
   <v>       0.01227119      -0.01619324      -0.01716161 </v>
   <v>       0.00910958       0.01118709       0.00472351 </v>
   <v>      -0.01259069      -0.00018376      -0.02090482 </v>
   <v>      -0.01507148       0.01475853      -0.00136397 </v>
   <v>      -0.00518317      -0.00027543      -0.00166254 </v>
   <v>       0.00509334       0.04771194      -0.02985469 </v>
   <v>      -0.00600028      -0.00683150       0.00029085 </v>
   <v>       0.00919472       0.01562015       0.02332268 </v>
   <v>       0.04501547      -0.02852750      -0.01857753 </v>
   <v>      -0.00328502       0.01620232      -0.00487279 </v>
   <v>      -0.00386630       0.03172426       0.03366684 </v>
   <v>      -0.01223190       0.00952533      -0.05469071 </v>
   <v>       0.01780952       0.00060702      -0.01289187 </v>
   <v>      -0.02264036       0.02238110      -0.01519324 </v>
   <v>       0.00698593      -0.01169684       0.02546210 </v>
   <v>      -0.00026879      -0.00912706       0.00222850 </v>
   <v>       0.01695274       0.02070595       0.03047403 </v>
   <v>      -0.00009011       0.01128844       0.00733631 </v>
   <v>      -0.02218575       0.00171952      -0.03573341 </v>
   <v>      -0.00136765       0.00713890       0.02101450 </v>
   <v>      -0.00775223       0.02390509       0.04047986 </v>
   <v>      -0.00516407       0.00812015      -0.00118362 </v>
   <v>       0.00262321       0.00382706       0.01151300 </v>
   <v>       0.00527355       0.00777005       0.00590970 </v>
   <v>      -0.00124133      -0.02589976       0.02948891 </v>
   <v>      -0.00736379      -0.00403041      -0.00094742 </v>
   <v>      -0.00603023       0.01120673      -0.01032686 </v>
   <v>      -0.00061895       0.00620748       0.00094951 </v>
   <v>      -0.00907887      -0.00078884       0.08361219 </v>
   <v>       0.00679030      -0.00106068      -0.01796090 </v>
   <v>       0.01813339      -0.01162920       0.04286882 </v>
   <v>       0.00193148       0.00383380      -0.00281842 </v>
   <v>      -0.00300391       0.00182348       0.00759488 </v>
   <v>       0.00277775      -0.00068955       0.02194715 </v>
   <v>      -0.00584310       0.00415271       0.03060030 </v>
   <v>       0.00381479      -0.03986568       0.04529325 </v>
   <v>       0.02276442      -0.04583870      -0.06107778 </v>
   <v>      -0.01685589      -0.00099516       0.01024965 </v>
   <v>      -0.00368748       0.00168062      -0.00378072 </v>
   <v>       0.00241923      -0.00071393      -0.00773568 </v>
   <v>       0.00183795      -0.00401421       0.00024324 </v>
   <v>      -0.01162236      -0.00561404      -0.01117304 </v>
   <v>      -0.00270348       0.00359697      -0.00904501 </v>
   <v>       0.00153720       0.00026458      -0.01926767 </v>
   <v>       0.00693358      -0.03668317       0.02078430 </v>
   <v>       0.02013710      -0.02393694       0.01009350 </v>
   <v>       0.04305116      -0.02384633      -0.05494673 </v>
   <v>      -0.00441392       0.00018929       0.00448544 </v>
   <v>      -0.01369661       0.00312842      -0.00566008 </v>
   <v>      -0.00126074       0.01242571      -0.00350861 </v>
  </varray>
  <varray name="stress" >
   <v>      -5.20822608       0.50994364       0.03164646 </v>
   <v>       0.50994345      -5.29632199      -0.35105643 </v>
   <v>       0.03164627      -0.35105648       0.34322631 </v>
  </varray>
  <energy>
   <i name="e_fr_energy">    -68.92297077 </i>
   <i name="e_wo_entrp">    -68.92297077 </i>
   <i name="e_0_energy">      0.00000000 </i>
  </energy>
  <time name="totalsc">  278.72  280.39</time>
  <eigenvalues>
   <array>
    <dimension dim="1">band</dimension>
    <dimension dim="2">kpoint</dimension>
    <dimension dim="3">spin</dimension>
    <field>eigene</field>
    <field>occ</field>
    <set>
     <set comment="spin 1">
      <set comment="kpoint 1">
       <r>  -23.9077    1.0000 </r>
       <r>  -23.7363    1.0000 </r>
       <r>  -23.4804    1.0000 </r>
       <r>  -23.3837    1.0000 </r>
       <r>  -23.1605    1.0000 </r>
       <r>  -21.1338    1.0000 </r>
       <r>  -11.9308    1.0000 </r>
       <r>  -11.8140    1.0000 </r>
       <r>  -11.5688    1.0000 </r>
       <r>  -11.1676    1.0000 </r>
       <r>  -10.9252    1.0000 </r>
       <r>   -8.8532    1.0000 </r>
       <r>   -8.7161    1.0000 </r>
       <r>   -8.6082    1.0000 </r>
       <r>   -8.3014    1.0000 </r>
       <r>   -7.8846    1.0000 </r>
       <r>   -7.5349    1.0000 </r>
       <r>   -7.4779    1.0000 </r>
       <r>   -7.0292    1.0000 </r>
       <r>   -6.6787    1.0000 </r>
       <r>   -6.5731    1.0000 </r>
       <r>   -6.3483    1.0000 </r>
       <r>   -6.2966    1.0000 </r>
       <r>   -5.8670    1.0000 </r>
       <r>   -5.7612    1.0000 </r>
       <r>   -5.7314    1.0000 </r>
       <r>   -5.4764    1.0000 </r>
       <r>   -5.3222    1.0000 </r>
       <r>   -5.3106    1.0000 </r>
       <r>   -5.3043    1.0000 </r>
       <r>   -5.2720    1.0000 </r>
       <r>   -5.2450    1.0000 </r>
       <r>   -5.2241    1.0000 </r>
       <r>   -4.9844    1.0000 </r>
       <r>   -4.7839    1.0000 </r>
       <r>   -4.7801    1.0000 </r>
       <r>   -4.7340    1.0000 </r>
       <r>   -4.7281    1.0000 </r>
       <r>   -4.6356    1.0000 </r>
       <r>   -4.5669    1.0000 </r>
       <r>   -4.3573    1.0000 </r>
       <r>   -3.9110    1.0000 </r>
       <r>   -3.8722    1.0000 </r>
       <r>   -3.8626    1.0000 </r>
       <r>   -3.7442    1.0000 </r>
       <r>   -3.6551    1.0000 </r>
       <r>   -3.3877    1.0000 </r>
       <r>   -3.1122    1.0000 </r>
       <r>   -2.7626    1.0000 </r>
       <r>   -2.7080    1.0000 </r>
       <r>   -2.6958    1.0000 </r>
       <r>   -2.6181    1.0000 </r>
       <r>   -2.4664    1.0000 </r>
       <r>   -1.9566    1.0000 </r>
       <r>   -1.7073    1.0000 </r>
       <r>   -1.3501    1.0000 </r>
       <r>   -1.2392    1.0000 </r>
       <r>   -1.2129    1.0000 </r>
       <r>   -1.1818    1.0000 </r>
       <r>   -1.1466    1.0000 </r>
       <r>   -1.1362    1.0000 </r>
       <r>   -1.1265    1.0000 </r>
       <r>   -1.0992    1.0000 </r>
       <r>   -1.0838    1.0000 </r>
       <r>   -1.0790    1.0000 </r>
       <r>   -0.9772    1.0000 </r>
       <r>   -0.8100    1.0000 </r>
       <r>   -0.7744    1.0000 </r>
       <r>   -0.7144    0.6292 </r>
       <r>   -0.5812    0.0000 </r>
       <r>   -0.5626    0.0000 </r>
       <r>   -0.4469    0.0000 </r>
       <r>   -0.3420    0.0000 </r>
       <r>   -0.1426    0.0000 </r>
       <r>   -0.1169    0.0000 </r>
       <r>    0.0655    0.0000 </r>
       <r>    0.0978    0.0000 </r>
       <r>    0.1795    0.0000 </r>
       <r>    0.1951    0.0000 </r>
       <r>    0.2401    0.0000 </r>
       <r>    0.2940    0.0000 </r>
       <r>    0.4314    0.0000 </r>
       <r>    0.5657    0.0000 </r>
       <r>    0.7858    0.0000 </r>
       <r>    0.9463    0.0000 </r>
       <r>    0.9661    0.0000 </r>
       <r>    0.9743    0.0000 </r>
       <r>    0.9829    0.0000 </r>
       <r>    0.9955    0.0000 </r>
       <r>    1.0066    0.0000 </r>
       <r>    1.0566    0.0000 </r>
       <r>    1.1394    0.0000 </r>
       <r>    1.2182    0.0000 </r>
       <r>    1.2846    0.0000 </r>
       <r>    1.3303    0.0000 </r>
       <r>    1.5112    0.0000 </r>
       <r>    1.5233    0.0000 </r>
       <r>    1.5273    0.0000 </r>
       <r>    1.5597    0.0000 </r>
       <r>    1.5787    0.0000 </r>
       <r>    1.6268    0.0000 </r>
       <r>    1.7019    0.0000 </r>
      </set>
      <set comment="kpoint 2">
       <r>  -23.9075    1.0000 </r>
       <r>  -23.7332    1.0000 </r>
       <r>  -23.5008    1.0000 </r>
       <r>  -23.3610    1.0000 </r>
       <r>  -23.1661    1.0000 </r>
       <r>  -21.1338    1.0000 </r>
       <r>  -11.9304    1.0000 </r>
       <r>  -11.8140    1.0000 </r>
       <r>  -11.5739    1.0000 </r>
       <r>  -11.1505    1.0000 </r>
       <r>  -10.9382    1.0000 </r>
       <r>   -8.8539    1.0000 </r>
       <r>   -8.7138    1.0000 </r>
       <r>   -8.6063    1.0000 </r>
       <r>   -8.3013    1.0000 </r>
       <r>   -7.8812    1.0000 </r>
       <r>   -7.5296    1.0000 </r>
       <r>   -7.2556    1.0000 </r>
       <r>   -6.9131    1.0000 </r>
       <r>   -6.6532    1.0000 </r>
       <r>   -6.5521    1.0000 </r>
       <r>   -6.4745    1.0000 </r>
       <r>   -6.3626    1.0000 </r>
       <r>   -6.2303    1.0000 </r>
       <r>   -5.9203    1.0000 </r>
       <r>   -5.8448    1.0000 </r>
       <r>   -5.7867    1.0000 </r>
       <r>   -5.7608    1.0000 </r>
       <r>   -5.7291    1.0000 </r>
       <r>   -5.5602    1.0000 </r>
       <r>   -5.3660    1.0000 </r>
       <r>   -5.2165    1.0000 </r>
       <r>   -5.1097    1.0000 </r>
       <r>   -4.9320    1.0000 </r>
       <r>   -4.7993    1.0000 </r>
       <r>   -4.4697    1.0000 </r>
       <r>   -4.3484    1.0000 </r>
       <r>   -4.3318    1.0000 </r>
       <r>   -4.2514    1.0000 </r>
       <r>   -4.0663    1.0000 </r>
       <r>   -3.7946    1.0000 </r>
       <r>   -3.7445    1.0000 </r>
       <r>   -3.6485    1.0000 </r>
       <r>   -3.5424    1.0000 </r>
       <r>   -3.1425    1.0000 </r>
       <r>   -3.1019    1.0000 </r>
       <r>   -3.0382    1.0000 </r>
       <r>   -2.9730    1.0000 </r>
       <r>   -2.9400    1.0000 </r>
       <r>   -2.9265    1.0000 </r>
       <r>   -2.8461    1.0000 </r>
       <r>   -2.5511    1.0000 </r>
       <r>   -2.4062    1.0000 </r>
       <r>   -2.3375    1.0000 </r>
       <r>   -2.2537    1.0000 </r>
       <r>   -2.0656    1.0000 </r>
       <r>   -1.7779    1.0000 </r>
       <r>   -1.7386    1.0000 </r>
       <r>   -1.6582    1.0000 </r>
       <r>   -1.5996    1.0000 </r>
       <r>   -1.5676    1.0000 </r>
       <r>   -1.5415    1.0000 </r>
       <r>   -1.4918    1.0000 </r>
       <r>   -1.3284    1.0000 </r>
       <r>   -1.0414    1.0000 </r>
       <r>   -0.9193    1.0000 </r>
       <r>   -0.8961    1.0000 </r>
       <r>   -0.8200    1.0000 </r>
       <r>   -0.6891    0.4421 </r>
       <r>   -0.6636    0.0992 </r>
       <r>   -0.5846   -0.0398 </r>
       <r>   -0.4936    0.0000 </r>
       <r>   -0.3000    0.0000 </r>
       <r>   -0.1344    0.0000 </r>
       <r>   -0.0978    0.0000 </r>
       <r>   -0.0269    0.0000 </r>
       <r>   -0.0029    0.0000 </r>
       <r>    0.1334    0.0000 </r>
       <r>    0.1771    0.0000 </r>
       <r>    0.2251    0.0000 </r>
       <r>    0.3636    0.0000 </r>
       <r>    0.4401    0.0000 </r>
       <r>    0.4764    0.0000 </r>
       <r>    0.5331    0.0000 </r>
       <r>    0.6080    0.0000 </r>
       <r>    0.7191    0.0000 </r>
       <r>    0.8269    0.0000 </r>
       <r>    0.8659    0.0000 </r>
       <r>    0.9671    0.0000 </r>
       <r>    1.0404    0.0000 </r>
       <r>    1.0842    0.0000 </r>
       <r>    1.1823    0.0000 </r>
       <r>    1.2494    0.0000 </r>
       <r>    1.2793    0.0000 </r>
       <r>    1.3222    0.0000 </r>
       <r>    1.4031    0.0000 </r>
       <r>    1.4657    0.0000 </r>
       <r>    1.5132    0.0000 </r>
       <r>    1.6052    0.0000 </r>
       <r>    1.6258    0.0000 </r>
       <r>    1.8354    0.0000 </r>
       <r>    1.9782    0.0000 </r>
      </set>
      <set comment="kpoint 3">
       <r>  -23.9076    1.0000 </r>
       <r>  -23.7361    1.0000 </r>
       <r>  -23.4816    1.0000 </r>
       <r>  -23.3831    1.0000 </r>
       <r>  -23.1601    1.0000 </r>
       <r>  -21.1339    1.0000 </r>
       <r>  -11.9304    1.0000 </r>
       <r>  -11.8144    1.0000 </r>
       <r>  -11.5675    1.0000 </r>
       <r>  -11.1688    1.0000 </r>
       <r>  -10.9252    1.0000 </r>
       <r>   -8.8531    1.0000 </r>
       <r>   -8.7225    1.0000 </r>
       <r>   -8.5925    1.0000 </r>
       <r>   -8.3104    1.0000 </r>
       <r>   -7.8856    1.0000 </r>
       <r>   -7.5206    1.0000 </r>
       <r>   -7.2556    1.0000 </r>
       <r>   -6.9210    1.0000 </r>
       <r>   -6.6709    1.0000 </r>
       <r>   -6.5384    1.0000 </r>
       <r>   -6.4701    1.0000 </r>
       <r>   -6.3366    1.0000 </r>
       <r>   -6.2524    1.0000 </r>
       <r>   -5.8822    1.0000 </r>
       <r>   -5.8597    1.0000 </r>
       <r>   -5.7878    1.0000 </r>
       <r>   -5.7674    1.0000 </r>
       <r>   -5.7270    1.0000 </r>
[...]
       <r>   -22.0089     0.0000    10.0000 </r>
       <r>   -21.9090     0.0000    10.0000 </r>
       <r>   -21.8090     0.0000    10.0000 </r>
       <r>   -21.7090     0.0000    10.0000 </r>
       <r>   -21.6090     0.0000    10.0000 </r>
       <r>   -21.5091     0.0000    10.0000 </r>
       <r>   -21.4091     0.0000    10.0000 </r>
       <r>   -21.3091     0.0000    10.0000 </r>
       <r>   -21.2092     0.0000    10.0000 </r>
       <r>   -21.1092     0.0000    12.0000 </r>
       <r>   -21.0092     0.0000    12.0000 </r>
       <r>   -20.9093     0.0000    12.0000 </r>
       <r>   -20.8093     0.0000    12.0000 </r>
       <r>   -20.7093     0.0000    12.0000 </r>
       <r>   -20.6094     0.0000    12.0000 </r>
       <r>   -20.5094     0.0000    12.0000 </r>
       <r>   -20.4094     0.0000    12.0000 </r>
       <r>   -20.3094     0.0000    12.0000 </r>
       <r>   -20.2095     0.0000    12.0000 </r>
       <r>   -20.1095     0.0000    12.0000 </r>
       <r>   -20.0095     0.0000    12.0000 </r>
       <r>   -19.9096     0.0000    12.0000 </r>
       <r>   -19.8096     0.0000    12.0000 </r>
       <r>   -19.7096     0.0000    12.0000 </r>
       <r>   -19.6097     0.0000    12.0000 </r>
       <r>   -19.5097     0.0000    12.0000 </r>
       <r>   -19.4097     0.0000    12.0000 </r>
       <r>   -19.3098     0.0000    12.0000 </r>
       <r>   -19.2098     0.0000    12.0000 </r>
       <r>   -19.1098     0.0000    12.0000 </r>
       <r>   -19.0098     0.0000    12.0000 </r>
       <r>   -18.9099     0.0000    12.0000 </r>
       <r>   -18.8099     0.0000    12.0000 </r>
       <r>   -18.7099     0.0000    12.0000 </r>
       <r>   -18.6100     0.0000    12.0000 </r>
       <r>   -18.5100     0.0000    12.0000 </r>
       <r>   -18.4100     0.0000    12.0000 </r>
       <r>   -18.3101     0.0000    12.0000 </r>
       <r>   -18.2101     0.0000    12.0000 </r>
       <r>   -18.1101     0.0000    12.0000 </r>
       <r>   -18.0102     0.0000    12.0000 </r>
       <r>   -17.9102     0.0000    12.0000 </r>
       <r>   -17.8102     0.0000    12.0000 </r>
       <r>   -17.7102     0.0000    12.0000 </r>
       <r>   -17.6103     0.0000    12.0000 </r>
       <r>   -17.5103     0.0000    12.0000 </r>
       <r>   -17.4103     0.0000    12.0000 </r>
       <r>   -17.3104     0.0000    12.0000 </r>
       <r>   -17.2104     0.0000    12.0000 </r>
       <r>   -17.1104     0.0000    12.0000 </r>
       <r>   -17.0105     0.0000    12.0000 </r>
       <r>   -16.9105     0.0000    12.0000 </r>
       <r>   -16.8105     0.0000    12.0000 </r>
       <r>   -16.7106     0.0000    12.0000 </r>
       <r>   -16.6106     0.0000    12.0000 </r>
       <r>   -16.5106     0.0000    12.0000 </r>
       <r>   -16.4106     0.0000    12.0000 </r>
       <r>   -16.3107     0.0000    12.0000 </r>
       <r>   -16.2107     0.0000    12.0000 </r>
       <r>   -16.1107     0.0000    12.0000 </r>
       <r>   -16.0108     0.0000    12.0000 </r>
       <r>   -15.9108     0.0000    12.0000 </r>
       <r>   -15.8108     0.0000    12.0000 </r>
       <r>   -15.7109     0.0000    12.0000 </r>
       <r>   -15.6109     0.0000    12.0000 </r>
       <r>   -15.5109     0.0000    12.0000 </r>
       <r>   -15.4110     0.0000    12.0000 </r>
       <r>   -15.3110     0.0000    12.0000 </r>
       <r>   -15.2110     0.0000    12.0000 </r>
       <r>   -15.1110     0.0000    12.0000 </r>
       <r>   -15.0111     0.0000    12.0000 </r>
       <r>   -14.9111     0.0000    12.0000 </r>
       <r>   -14.8111     0.0000    12.0000 </r>
       <r>   -14.7112     0.0000    12.0000 </r>
       <r>   -14.6112     0.0000    12.0000 </r>
       <r>   -14.5112     0.0000    12.0000 </r>
       <r>   -14.4113     0.0000    12.0000 </r>
       <r>   -14.3113     0.0000    12.0000 </r>
       <r>   -14.2113     0.0000    12.0000 </r>
       <r>   -14.1114     0.0000    12.0000 </r>
       <r>   -14.0114     0.0000    12.0000 </r>
       <r>   -13.9114     0.0000    12.0000 </r>
       <r>   -13.8114     0.0000    12.0000 </r>
       <r>   -13.7115     0.0000    12.0000 </r>
       <r>   -13.6115     0.0000    12.0000 </r>
       <r>   -13.5115     0.0000    12.0000 </r>
       <r>   -13.4116     0.0000    12.0000 </r>
       <r>   -13.3116     0.0000    12.0000 </r>
       <r>   -13.2116     0.0000    12.0000 </r>
       <r>   -13.1117     0.0000    12.0000 </r>
       <r>   -13.0117     0.0000    12.0000 </r>
       <r>   -12.9117     0.0000    12.0000 </r>
       <r>   -12.8118     0.0000    12.0000 </r>
       <r>   -12.7118     0.0000    12.0000 </r>
       <r>   -12.6118     0.0000    12.0000 </r>
       <r>   -12.5118     0.0000    12.0000 </r>
       <r>   -12.4119     0.0000    12.0000 </r>
       <r>   -12.3119     0.0000    12.0000 </r>
       <r>   -12.2119     0.0000    12.0000 </r>
       <r>   -12.1120     0.0000    12.0000 </r>
       <r>   -12.0120     0.0000    12.0000 </r>
       <r>   -11.9120     0.0000    14.0000 </r>
       <r>   -11.8121     0.0000    16.0000 </r>
       <r>   -11.7121     0.0000    16.0000 </r>
       <r>   -11.6121     0.0000    16.0000 </r>
       <r>   -11.5122     0.0000    18.0000 </r>
       <r>   -11.4122     0.0000    18.0000 </r>
       <r>   -11.3122     0.0000    18.0000 </r>
       <r>   -11.2122     0.0000    18.0000 </r>
       <r>   -11.1123     0.0000    20.0000 </r>
       <r>   -11.0123     0.0000    20.0000 </r>
       <r>   -10.9123     0.0000    22.0000 </r>
       <r>   -10.8124     0.0000    22.0000 </r>
       <r>   -10.7124     0.0000    22.0000 </r>
       <r>   -10.6124     0.0000    22.0000 </r>
       <r>   -10.5125     0.0000    22.0000 </r>
       <r>   -10.4125     0.0000    22.0000 </r>
       <r>   -10.3125     0.0000    22.0000 </r>
       <r>   -10.2126     0.0000    22.0000 </r>
       <r>   -10.1126     0.0000    22.0000 </r>
       <r>   -10.0126     0.0000    22.0000 </r>
       <r>    -9.9127     0.0000    22.0000 </r>
       <r>    -9.8127     0.0000    22.0000 </r>
       <r>    -9.7127     0.0000    22.0000 </r>
       <r>    -9.6127     0.0000    22.0000 </r>
       <r>    -9.5128     0.0000    22.0000 </r>
       <r>    -9.4128     0.0000    22.0000 </r>
       <r>    -9.3128     0.0000    22.0000 </r>
       <r>    -9.2129     0.0000    22.0000 </r>
       <r>    -9.1129     0.0000    22.0000 </r>
       <r>    -9.0129     0.0000    22.0000 </r>
       <r>    -8.9130     0.0000    22.0000 </r>
       <r>    -8.8130     0.0000    24.0000 </r>
       <r>    -8.7130     0.0000    26.0000 </r>
       <r>    -8.6131     0.0000    26.0000 </r>
       <r>    -8.5131     0.0000    28.0000 </r>
       <r>    -8.4131     0.0000    28.0000 </r>
       <r>    -8.3131     0.0000    28.0000 </r>
       <r>    -8.2132     0.0000    30.0000 </r>
       <r>    -8.1132     0.0000    30.0000 </r>
       <r>    -8.0132     0.0000    30.0000 </r>
       <r>    -7.9133     0.0000    30.0000 </r>
       <r>    -7.8133     0.0000    32.0000 </r>
       <r>    -7.7133     0.0000    32.0000 </r>
       <r>    -7.6134     0.0000    32.0000 </r>
       <r>    -7.5134     0.0000    34.0000 </r>
       <r>    -7.4134     1.7610    34.0568 </r>
       <r>    -7.3135     4.4911    34.3693 </r>
       <r>    -7.2135     8.5793    35.0769 </r>
       <r>    -7.1135     4.5936    35.7354 </r>
       <r>    -7.0135     2.4501    36.0098 </r>
       <r>    -6.9136    13.1033    36.8040 </r>
       <r>    -6.8136     5.3023    37.8690 </r>
       <r>    -6.7136    11.3871    38.1318 </r>
       <r>    -6.6137     7.8164    40.1715 </r>
       <r>    -6.5137    22.6647    42.4954 </r>
       <r>    -6.4137     9.4230    43.8354 </r>
       <r>    -6.3138    13.0471    45.9322 </r>
       <r>    -6.2138     3.2144    47.4427 </r>
       <r>    -6.1138     4.3897    47.7633 </r>
       <r>    -6.0139    10.9973    48.5324 </r>
       <r>    -5.9139    16.0516    49.9513 </r>
       <r>    -5.8139    45.3895    52.3576 </r>
       <r>    -5.7139     8.9861    56.4705 </r>
       <r>    -5.6140     6.1818    57.2286 </r>
       <r>    -5.5140    18.5959    59.1869 </r>
       <r>    -5.4140    16.0174    59.9412 </r>
       <r>    -5.3141    11.0556    61.7387 </r>
       <r>    -5.2141    23.1949    62.3056 </r>
       <r>    -5.1141    14.1163    64.5263 </r>
       <r>    -5.0142     0.0000    66.0000 </r>
       <r>    -4.9142     9.3490    67.1291 </r>
       <r>    -4.8142     4.3324    67.8130 </r>
       <r>    -4.7143    10.0481    69.4664 </r>
       <r>    -4.6143     6.2322    70.2728 </r>
       <r>    -4.5143    21.7078    71.3030 </r>
       <r>    -4.4143    18.5781    73.7840 </r>
       <r>    -4.3144    14.5800    75.4866 </r>
       <r>    -4.2144    17.6629    77.1031 </r>
       <r>    -4.1144     8.4111    78.6069 </r>
       <r>    -4.0145     1.5292    80.2621 </r>
       <r>    -3.9145     8.4917    80.7191 </r>
       <r>    -3.8145    23.8539    82.5600 </r>
       <r>    -3.7146     6.0571    84.4615 </r>
       <r>    -3.6146    20.8254    85.7042 </r>
       <r>    -3.5146     7.9830    86.9577 </r>
       <r>    -3.4147     6.9901    87.7061 </r>
       <r>    -3.3147     6.7785    88.3838 </r>
       <r>    -3.2147     6.8550    89.0653 </r>
       <r>    -3.1147    24.4185    90.8957 </r>
       <r>    -3.0148    20.8047    92.7206 </r>
       <r>    -2.9148    33.4673    94.8859 </r>
       <r>    -2.8148    31.8867    97.9682 </r>
       <r>    -2.7149    16.5314   100.5076 </r>
       <r>    -2.6149    10.9432   101.6389 </r>
       <r>    -2.5149    14.6031   103.7126 </r>
       <r>    -2.4150    74.9310   105.8777 </r>
       <r>    -2.3150     6.9316   107.3842 </r>
       <r>    -2.2150     4.7653   109.0953 </r>
       <r>    -2.1151     3.3622   109.5016 </r>
       <r>    -2.0151     4.3941   111.1811 </r>
       <r>    -1.9151    14.0242   112.0111 </r>
       <r>    -1.8151    29.9669   114.1839 </r>
       <r>    -1.7152    28.8117   117.2144 </r>
       <r>    -1.6152    30.6298   120.2537 </r>
       <r>    -1.5152    22.5784   122.8468 </r>
       <r>    -1.4153    18.5687   124.8760 </r>
       <r>    -1.3153    14.9546   126.6760 </r>
       <r>    -1.2153    11.3388   127.9856 </r>
       <r>    -1.1154    12.3851   129.0892 </r>
       <r>    -1.0154    16.7824   131.3565 </r>
       <r>    -0.9154    17.4773   133.9448 </r>
       <r>    -0.8155    25.8087   135.9309 </r>
       <r>    -0.7155    21.3815   137.5728 </r>
       <r>    -0.6155    29.1522   141.1573 </r>
       <r>    -0.5155    16.8455   143.3639 </r>
       <r>    -0.4156     8.8806   144.8259 </r>
       <r>    -0.3156    24.6490   146.4684 </r>
       <r>    -0.2156     9.9550   147.5192 </r>
       <r>    -0.1157     8.7023   149.0877 </r>
       <r>    -0.0157    12.0784   151.5096 </r>
       <r>     0.0843     9.4066   153.9997 </r>
       <r>     0.1842    31.2159   157.8398 </r>
       <r>     0.2842     0.0000   160.0000 </r>
       <r>     0.3842     0.0000   162.0000 </r>
       <r>     0.4841    42.1963   163.7679 </r>
       <r>     0.5841    21.0060   166.5207 </r>
       <r>     0.6841    16.4755   168.9114 </r>
       <r>     0.7841    15.9609   170.9998 </r>
       <r>     0.8840    39.9952   173.3604 </r>
       <r>     0.9840    29.0151   176.0656 </r>
       <r>     1.0840    28.8146   178.6795 </r>
       <r>     1.1839    24.1131   180.9080 </r>
       <r>     1.2839    70.2154   183.7035 </r>
       <r>     1.3839    25.1154   187.6572 </r>
       <r>     1.4838    44.4618   191.7794 </r>
       <r>     1.5838    47.7382   195.9745 </r>
       <r>     1.6838    32.2707   199.5366 </r>
       <r>     1.7837    15.8755   200.6097 </r>
       <r>     1.8837     3.5642   202.3239 </r>
       <r>     1.9837    13.5589   202.9843 </r>
       <r>     2.0837     0.0000   204.0000 </r>
       <r>     2.1836     0.0000   204.0000 </r>
       <r>     2.2836     0.0000   204.0000 </r>
       <r>     2.3836     0.0000   204.0000 </r>
       <r>     2.4835     0.0000   204.0000 </r>
       <r>     2.5835     0.0000   204.0000 </r>
       <r>     2.6835     0.0000   204.0000 </r>
       <r>     2.7834     0.0000   204.0000 </r>
       <r>     2.8834     0.0000   204.0000 </r>
       <r>     2.9834     0.0000   204.0000 </r>
       <r>     3.0833     0.0000   204.0000 </r>
       <r>     3.1833     0.0000   204.0000 </r>
       <r>     3.2833     0.0000   204.0000 </r>
       <r>     3.3833     0.0000   204.0000 </r>
       <r>     3.4832     0.0000   204.0000 </r>
       <r>     3.5832     0.0000   204.0000 </r>
       <r>     3.6832     0.0000   204.0000 </r>
       <r>     3.7831     0.0000   204.0000 </r>
       <r>     3.8831     0.0000   204.0000 </r>
       <r>     3.9831     0.0000   204.0000 </r>
       <r>     4.0830     0.0000   204.0000 </r>
      </set>
     </set>
    </array>
   </total>
  </dos>
 </calculation>
 <structure name="finalpos" >
  <crystal>
   <varray name="basis" >
    <v>       9.55575275       0.00000000       0.00000000 </v>
    <v>      -4.77787638       8.27552464       0.00000000 </v>
    <v>       0.00000000       0.00000000      32.62509537 </v>
   </varray>
   <i name="volume">   2579.95558872 </i>
   <varray name="rec_basis" >
    <v>       0.10464900       0.06041913       0.00000000 </v>
    <v>       0.00000000       0.12083826       0.00000000 </v>
    <v>       0.00000000       0.00000000       0.03065125 </v>
   </varray>
  </crystal>
  <varray name="positions" >
   <v>       0.00000000       0.00000000       0.00000000 </v>
   <v>       0.99889387       0.00045461       0.15828884 </v>
   <v>       0.00250617       0.00738088       0.33035564 </v>
   <v>       0.00000001       0.33333336       0.00000000 </v>
   <v>       0.00026992       0.33448171       0.15755208 </v>
   <v>       0.99016886       0.33984115       0.31234616 </v>
   <v>       0.00000002       0.66666672       0.00000000 </v>
   <v>       0.99921000       0.66775925       0.15798526 </v>
   <v>       0.01228353       0.68059014       0.31301830 </v>
   <v>       0.33333334       0.00000000       0.00000000 </v>
   <v>       0.33339097       0.00038441       0.15720674 </v>
   <v>       0.33332827       0.01052602       0.30896950 </v>
   <v>       0.33333335       0.33333336       0.00000000 </v>
   <v>       0.33151571       0.33216131       0.15704984 </v>
   <v>       0.31969338       0.32965556       0.31182887 </v>
   <v>       0.33333336       0.66666672       0.00000000 </v>
   <v>       0.33260130       0.66852777       0.15789708 </v>
   <v>       0.32507412       0.68076208       0.32961120 </v>
   <v>       0.66666668       0.00000000       0.00000000 </v>
   <v>       0.66603098       0.99921199       0.15781361 </v>
   <v>       0.67149317       0.01082301       0.31376960 </v>
   <v>       0.66666668       0.33333336       0.00000000 </v>
   <v>       0.66681009       0.33578940       0.15878930 </v>
   <v>       0.66518458       0.33828249       0.33175090 </v>
   <v>       0.66666670       0.66666672       0.00000000 </v>
   <v>       0.66942920       0.66804371       0.15827905 </v>
   <v>       0.66139619       0.67395227       0.32149446 </v>
   <v>       0.11111113       0.22222222       0.07982145 </v>
   <v>       0.10564969       0.22058646       0.23646198 </v>
   <v>       0.11111114       0.55555561       0.07982145 </v>
   <v>       0.11642507       0.55911023       0.23636570 </v>
   <v>       0.11111116       0.88888894       0.07982145 </v>
   <v>       0.10951918       0.89230976       0.23481120 </v>
   <v>       0.44444450       0.22222222       0.07982145 </v>
   <v>       0.44749838       0.23002171       0.23579561 </v>
   <v>       0.44444450       0.55555561       0.07982145 </v>
   <v>       0.44647019       0.55776378       0.23394085 </v>
   <v>       0.44444451       0.88888894       0.07982145 </v>
   <v>       0.44364825       0.88546241       0.23692226 </v>
   <v>       0.77777779       0.22222222       0.07982145 </v>
   <v>       0.77409390       0.22254811       0.23525176 </v>
   <v>       0.77777781       0.55555561       0.07982145 </v>
   <v>       0.77427179       0.55324904       0.24059318 </v>
   <v>       0.77777784       0.88888894       0.07982145 </v>
   <v>       0.77877239       0.88631934       0.23967947 </v>
   <v>       0.00234391       0.00025774       0.39610915 </v>
   <v>       0.30138411       0.97005033       0.41240017 </v>
   <v>       0.88668951       0.21750993       0.41606358 </v>
   <v>       0.60682661       0.28716515       0.39678647 </v>
   <v>       0.68419971       0.57024670       0.37228630 </v>
   <v>       0.35898661       0.70839306       0.39436290 </v>
   <v>       0.96967205       0.07163503       0.41006243 </v>
   <v>       0.09632977       0.00726479       0.41041144 </v>
   <v>       0.39846604       0.07809152       0.40944366 </v>
   <v>       0.26011565       0.94122878       0.38383198 </v>
   <v>       0.98355715       0.32462053       0.41780459 </v>
   <v>       0.86198442       0.20504449       0.38601867 </v>
   <v>       0.62922560       0.40409130       0.39696085 </v>
   <v>       0.69306976       0.28308081       0.41218824 </v>
   <v>       0.78211140       0.64730545       0.38698038 </v>
   <v>       0.42704986       0.55207304       0.32923667 </v>
   <v>       0.35537716       0.80187692       0.40655527 </v>
   <v>       0.45440951       0.70823401       0.40511558 </v>
  </varray>
  <varray name="selective"  type="logical" >
   <v type="logical" >  F  F  F </v>
   <v type="logical" >  T  T  T </v>
   <v type="logical" >  T  T  T </v>
   <v type="logical" >  F  F  F </v>
   <v type="logical" >  T  T  T </v>
   <v type="logical" >  T  T  T </v>
   <v type="logical" >  F  F  F </v>
   <v type="logical" >  T  T  T </v>
   <v type="logical" >  T  T  T </v>
   <v type="logical" >  F  F  F </v>
   <v type="logical" >  T  T  T </v>
   <v type="logical" >  T  T  T </v>
   <v type="logical" >  F  F  F </v>
   <v type="logical" >  T  T  T </v>
   <v type="logical" >  T  T  T </v>
   <v type="logical" >  F  F  F </v>
   <v type="logical" >  T  T  T </v>
   <v type="logical" >  T  T  T </v>
   <v type="logical" >  F  F  F </v>
   <v type="logical" >  T  T  T </v>
   <v type="logical" >  T  T  T </v>
   <v type="logical" >  F  F  F </v>
   <v type="logical" >  T  T  T </v>
   <v type="logical" >  T  T  T </v>
   <v type="logical" >  F  F  F </v>
   <v type="logical" >  T  T  T </v>
   <v type="logical" >  T  T  T </v>
   <v type="logical" >  F  F  F </v>
   <v type="logical" >  T  T  T </v>
   <v type="logical" >  F  F  F </v>
   <v type="logical" >  T  T  T </v>
   <v type="logical" >  F  F  F </v>
   <v type="logical" >  T  T  T </v>
   <v type="logical" >  F  F  F </v>
   <v type="logical" >  T  T  T </v>
   <v type="logical" >  F  F  F </v>
   <v type="logical" >  T  T  T </v>
   <v type="logical" >  F  F  F </v>
   <v type="logical" >  T  T  T </v>
   <v type="logical" >  F  F  F </v>
   <v type="logical" >  T  T  T </v>
   <v type="logical" >  F  F  F </v>
   <v type="logical" >  T  T  T </v>
   <v type="logical" >  F  F  F </v>
   <v type="logical" >  T  T  T </v>
   <v type="logical" >  T  T  T </v>
   <v type="logical" >  T  T  T </v>
   <v type="logical" >  T  T  T </v>
   <v type="logical" >  T  T  T </v>
   <v type="logical" >  T  T  T </v>
   <v type="logical" >  T  T  T </v>
   <v type="logical" >  T  T  T </v>
   <v type="logical" >  T  T  T </v>
   <v type="logical" >  T  T  T </v>
   <v type="logical" >  T  T  T </v>
   <v type="logical" >  T  T  T </v>
   <v type="logical" >  T  T  T </v>
   <v type="logical" >  T  T  T </v>
   <v type="logical" >  T  T  T </v>
   <v type="logical" >  T  T  T </v>
   <v type="logical" >  T  T  T </v>
   <v type="logical" >  T  T  T </v>
   <v type="logical" >  T  T  T </v>
  </varray>
  <nose>
   <v>      -3.00000000       0.00000000       0.00010000       0.00010000 </v>
  </nose>
 </structure>
</modeling>
