Mg_slab_in_a_box                        
           1
     9.555753    0.000000    0.000000
    -4.777876    8.275525    0.000000
     0.000000    0.000000   32.625095
   Mg   O    H 
  45   6  12
Direct configuration=     1
   0.00000000  0.00000000  0.00000000
   0.99889387  0.00045461  0.15828884
   0.00250617  0.00738088  0.33035564
   0.00000001  0.33333336  0.00000000
   0.00026992  0.33448171  0.15755208
   0.99016886  0.33984115  0.31234616
   0.00000002  0.66666672  0.00000000
   0.99921000  0.66775925  0.15798526
   0.01228353  0.68059014  0.31301830
   0.33333334  0.00000000  0.00000000
   0.33339097  0.00038441  0.15720674
   0.33332827  0.01052602  0.30896950
   0.33333335  0.33333336  0.00000000
   0.33151571  0.33216131  0.15704984
   0.31969338  0.32965556  0.31182887
   0.33333336  0.66666672  0.00000000
   0.33260130  0.66852777  0.15789708
   0.32507412  0.68076208  0.32961120
   0.66666668  0.00000000  0.00000000
   0.66603098  0.99921199  0.15781361
   0.67149317  0.01082301  0.31376960
   0.66666668  0.33333336  0.00000000
   0.66681009  0.33578940  0.15878930
   0.66518458  0.33828249  0.33175090
   0.66666670  0.66666672  0.00000000
   0.66942920  0.66804371  0.15827905
   0.66139619  0.67395227  0.32149446
   0.11111113  0.22222222  0.07982145
   0.10564969  0.22058646  0.23646198
   0.11111114  0.55555561  0.07982145
   0.11642507  0.55911023  0.23636570
   0.11111116  0.88888894  0.07982145
   0.10951918  0.89230976  0.23481120
   0.44444450  0.22222222  0.07982145
   0.44749838  0.23002171  0.23579561
   0.44444450  0.55555561  0.07982145
   0.44647019  0.55776378  0.23394085
   0.44444451  0.88888894  0.07982145
   0.44364825  0.88546241  0.23692226
   0.77777779  0.22222222  0.07982145
   0.77409390  0.22254811  0.23525176
   0.77777781  0.55555561  0.07982145
   0.77427179  0.55324904  0.24059318
   0.77777784  0.88888894  0.07982145
   0.77877239  0.88631934  0.23967947
   0.00234391  0.00025774  0.39610915
   0.30138411  0.97005033  0.41240017
   0.88668951  0.21750993  0.41606358
   0.60682661  0.28716515  0.39678647
   0.68419971  0.57024670  0.37228630
   0.35898661  0.70839306  0.39436290
   0.96967205  0.07163503  0.41006243
   0.09632977  0.00726479  0.41041144
   0.39846604  0.07809152  0.40944366
   0.26011565  0.94122878  0.38383198
   0.98355715  0.32462053  0.41780459
   0.86198442  0.20504449  0.38601867
   0.62922560  0.40409130  0.39696085
   0.69306976  0.28308081  0.41218824
   0.78211140  0.64730545  0.38698038
   0.42704986  0.55207304  0.32923667
   0.35537716  0.80187692  0.40655527
   0.45440951  0.70823401  0.40511558
