  63  63   0   0
  0.4095168E+02  0.9555753E-09  0.9555753E-09  0.3262510E-08  0.5000000E-15
  1.000000000000000E-004
  CAR 
 Mg_slab_in_a_box                        
      4.02995168    -25.94657657  301     -0.68524481      1.00000000
    -25.947  0.0000E+00  0.0000E+00
    -25.847  0.0000E+00  0.0000E+00
    -25.747  0.0000E+00  0.0000E+00
    -25.647  0.0000E+00  0.0000E+00
    -25.547  0.0000E+00  0.0000E+00
    -25.447  0.0000E+00  0.0000E+00
    -25.347  0.0000E+00  0.0000E+00
    -25.247  0.0000E+00  0.0000E+00
    -25.147  0.0000E+00  0.0000E+00
    -25.047  0.0000E+00  0.0000E+00
    -24.947  0.0000E+00  0.0000E+00
    -24.847  0.0000E+00  0.0000E+00
    -24.748  0.0000E+00  0.0000E+00
    -24.648  0.0000E+00  0.0000E+00
    -24.548  0.0000E+00  0.0000E+00
    -24.448  0.0000E+00  0.0000E+00
    -24.348  0.0000E+00  0.0000E+00
    -24.248  0.0000E+00  0.0000E+00
    -24.148  0.0000E+00  0.0000E+00
    -24.048  0.0000E+00  0.0000E+00
    -23.948  0.0000E+00  0.0000E+00
    -23.848  0.0000E+00  0.2000E+01
    -23.748  0.0000E+00  0.2000E+01
    -23.648  0.7576E+03  0.2281E+01
    -23.548  0.0000E+00  0.4000E+01
    -23.449  0.0000E+00  0.4000E+01
    -23.349  0.0000E+00  0.6000E+01
    -23.249  0.0000E+00  0.8000E+01
    -23.149  0.0000E+00  0.8000E+01
    -23.049  0.0000E+00  0.8000E+01
    -22.949  0.0000E+00  0.8000E+01
    -22.849  0.0000E+00  0.8000E+01
    -22.749  0.0000E+00  0.1000E+02
    -22.649  0.0000E+00  0.1000E+02
    -22.549  0.0000E+00  0.1000E+02
    -22.449  0.0000E+00  0.1000E+02
    -22.349  0.0000E+00  0.1000E+02
    -22.249  0.0000E+00  0.1000E+02
    -22.150  0.0000E+00  0.1000E+02
    -22.050  0.0000E+00  0.1000E+02
    -21.950  0.0000E+00  0.1000E+02
    -21.850  0.0000E+00  0.1000E+02
    -21.750  0.0000E+00  0.1000E+02
    -21.650  0.0000E+00  0.1000E+02
    -21.550  0.0000E+00  0.1000E+02
    -21.450  0.0000E+00  0.1000E+02
    -21.350  0.0000E+00  0.1000E+02
    -21.250  0.0000E+00  0.1000E+02
    -21.150  0.0000E+00  0.1000E+02
    -21.050  0.0000E+00  0.1000E+02
    -20.950  0.0000E+00  0.1000E+02
    -20.851  0.0000E+00  0.1000E+02
    -20.751  0.0000E+00  0.1000E+02
    -20.651  0.0000E+00  0.1000E+02
    -20.551  0.0000E+00  0.1000E+02
    -20.451  0.0000E+00  0.1000E+02
    -20.351  0.0000E+00  0.1000E+02
    -20.251  0.0000E+00  0.1200E+02
    -20.151  0.0000E+00  0.1200E+02
    -20.051  0.0000E+00  0.1200E+02
    -19.951  0.0000E+00  0.1200E+02
    -19.851  0.0000E+00  0.1200E+02
    -19.751  0.0000E+00  0.1200E+02
    -19.652  0.0000E+00  0.1200E+02
    -19.552  0.0000E+00  0.1200E+02
    -19.452  0.0000E+00  0.1200E+02
    -19.352  0.0000E+00  0.1200E+02
    -19.252  0.0000E+00  0.1200E+02
    -19.152  0.0000E+00  0.1200E+02
    -19.052  0.0000E+00  0.1200E+02
    -18.952  0.0000E+00  0.1200E+02
    -18.852  0.0000E+00  0.1200E+02
    -18.752  0.0000E+00  0.1200E+02
    -18.652  0.0000E+00  0.1200E+02
    -18.552  0.0000E+00  0.1200E+02
    -18.452  0.0000E+00  0.1200E+02
    -18.353  0.0000E+00  0.1200E+02
    -18.253  0.0000E+00  0.1200E+02
    -18.153  0.0000E+00  0.1200E+02
    -18.053  0.0000E+00  0.1200E+02
    -17.953  0.0000E+00  0.1200E+02
    -17.853  0.0000E+00  0.1200E+02
    -17.753  0.0000E+00  0.1200E+02
    -17.653  0.0000E+00  0.1200E+02
    -17.553  0.0000E+00  0.1200E+02
    -17.453  0.0000E+00  0.1200E+02
    -17.353  0.0000E+00  0.1200E+02
    -17.253  0.0000E+00  0.1200E+02
    -17.153  0.0000E+00  0.1200E+02
    -17.054  0.0000E+00  0.1200E+02
    -16.954  0.0000E+00  0.1200E+02
    -16.854  0.0000E+00  0.1200E+02
    -16.754  0.0000E+00  0.1200E+02
    -16.654  0.0000E+00  0.1200E+02
    -16.554  0.0000E+00  0.1200E+02
    -16.454  0.0000E+00  0.1200E+02
    -16.354  0.0000E+00  0.1200E+02
    -16.254  0.0000E+00  0.1200E+02
    -16.154  0.0000E+00  0.1200E+02
    -16.054  0.0000E+00  0.1200E+02
    -15.954  0.0000E+00  0.1200E+02
    -15.854  0.0000E+00  0.1200E+02
    -15.755  0.0000E+00  0.1200E+02
    -15.655  0.0000E+00  0.1200E+02
    -15.555  0.0000E+00  0.1200E+02
    -15.455  0.0000E+00  0.1200E+02
    -15.355  0.0000E+00  0.1200E+02
    -15.255  0.0000E+00  0.1200E+02
    -15.155  0.0000E+00  0.1200E+02
    -15.055  0.0000E+00  0.1200E+02
    -14.955  0.0000E+00  0.1200E+02
    -14.855  0.0000E+00  0.1200E+02
    -14.755  0.0000E+00  0.1200E+02
    -14.655  0.0000E+00  0.1200E+02
    -14.555  0.0000E+00  0.1200E+02
    -14.456  0.0000E+00  0.1200E+02
    -14.356  0.0000E+00  0.1200E+02
    -14.256  0.0000E+00  0.1200E+02
    -14.156  0.0000E+00  0.1200E+02
    -14.056  0.0000E+00  0.1200E+02
    -13.956  0.0000E+00  0.1200E+02
    -13.856  0.0000E+00  0.1200E+02
    -13.756  0.0000E+00  0.1200E+02
    -13.656  0.0000E+00  0.1200E+02
    -13.556  0.0000E+00  0.1200E+02
    -13.456  0.0000E+00  0.1200E+02
    -13.356  0.0000E+00  0.1200E+02
    -13.257  0.0000E+00  0.1200E+02
    -13.157  0.0000E+00  0.1200E+02
    -13.057  0.0000E+00  0.1200E+02
    -12.957  0.0000E+00  0.1200E+02
    -12.857  0.0000E+00  0.1200E+02
    -12.757  0.0000E+00  0.1200E+02
    -12.657  0.0000E+00  0.1200E+02
    -12.557  0.0000E+00  0.1200E+02
    -12.457  0.0000E+00  0.1200E+02
    -12.357  0.0000E+00  0.1200E+02
    -12.257  0.0000E+00  0.1200E+02
    -12.157  0.0000E+00  0.1200E+02
    -12.057  0.0000E+00  0.1200E+02
    -11.958  0.0000E+00  0.1400E+02
    -11.858  0.0000E+00  0.1400E+02
    -11.758  0.0000E+00  0.1600E+02
    -11.658  0.0000E+00  0.1600E+02
    -11.558  0.0000E+00  0.1600E+02
    -11.458  0.0000E+00  0.1600E+02
    -11.358  0.0000E+00  0.1600E+02
    -11.258  0.0000E+00  0.1600E+02
    -11.158  0.0000E+00  0.1800E+02
    -11.058  0.6541E+02  0.1833E+02
    -10.958  0.0000E+00  0.2000E+02
    -10.858  0.0000E+00  0.2200E+02
    -10.758  0.0000E+00  0.2200E+02
    -10.659  0.0000E+00  0.2200E+02
    -10.559  0.0000E+00  0.2200E+02
    -10.459  0.0000E+00  0.2200E+02
    -10.359  0.0000E+00  0.2200E+02
    -10.259  0.0000E+00  0.2200E+02
    -10.159  0.0000E+00  0.2200E+02
    -10.059  0.0000E+00  0.2200E+02
     -9.959  0.0000E+00  0.2200E+02
     -9.859  0.0000E+00  0.2200E+02
     -9.759  0.0000E+00  0.2200E+02
     -9.659  0.0000E+00  0.2200E+02
     -9.559  0.0000E+00  0.2200E+02
     -9.459  0.0000E+00  0.2200E+02
     -9.360  0.0000E+00  0.2200E+02
     -9.260  0.0000E+00  0.2200E+02
     -9.160  0.0000E+00  0.2200E+02
     -9.060  0.0000E+00  0.2200E+02
     -8.960  0.0000E+00  0.2200E+02
     -8.860  0.0000E+00  0.2400E+02
     -8.760  0.0000E+00  0.2400E+02
     -8.660  0.0000E+00  0.2400E+02
     -8.560  0.0000E+00  0.2600E+02
     -8.460  0.0000E+00  0.2600E+02
     -8.360  0.0000E+00  0.2600E+02
     -8.260  0.0000E+00  0.2600E+02
     -8.161  0.0000E+00  0.2800E+02
     -8.061  0.0000E+00  0.2800E+02
     -7.961  0.0000E+00  0.2800E+02
     -7.861  0.0000E+00  0.3000E+02
     -7.761  0.0000E+00  0.3200E+02
     -7.661  0.1849E+02  0.3203E+02
     -7.561  0.0000E+00  0.3400E+02
     -7.461  0.0000E+00  0.3400E+02
     -7.361  0.2049E+01  0.3408E+02
     -7.261  0.4672E+01  0.3442E+02
     -7.161  0.5549E+01  0.3498E+02
     -7.061  0.4042E+01  0.3546E+02
     -6.961  0.2536E+01  0.3579E+02
     -6.862  0.1963E+01  0.3597E+02
     -6.762  0.5830E+01  0.3635E+02
     -6.662  0.4916E+01  0.3815E+02
     -6.562  0.1729E+02  0.3909E+02
     -6.462  0.7869E+01  0.4139E+02
     -6.362  0.2831E+01  0.4192E+02
     -6.262  0.8615E+01  0.4341E+02
     -6.162  0.2088E+02  0.4493E+02
     -6.062  0.1281E+02  0.4621E+02
     -5.962  0.1878E+02  0.4778E+02
     -5.862  0.2794E+02  0.5032E+02
     -5.762  0.5510E+02  0.5372E+02
     -5.662  0.9261E+01  0.5658E+02
     -5.563  0.5603E+01  0.5729E+02
     -5.463  0.1815E+02  0.5832E+02
     -5.363  0.8252E+01  0.5964E+02
     -5.263  0.1155E+01  0.6000E+02
     -5.163  0.7989E+01  0.6230E+02
     -5.063  0.9444E+01  0.6341E+02
     -4.963  0.1954E+01  0.6397E+02
     -4.863  0.1512E+02  0.6506E+02
     -4.763  0.4938E+01  0.6577E+02
     -4.663  0.1580E+02  0.6661E+02
     -4.563  0.6161E+01  0.6850E+02
     -4.463  0.3871E+02  0.7063E+02
     -4.363  0.2416E+02  0.7273E+02
     -4.264  0.1428E+02  0.7421E+02
     -4.164  0.2091E+02  0.7611E+02
     -4.064  0.9794E+01  0.7805E+02
     -3.964  0.2760E+01  0.7839E+02
     -3.864  0.1979E+02  0.7929E+02
     -3.764  0.3565E+02  0.8273E+02
     -3.664  0.6669E+01  0.8447E+02
     -3.564  0.8183E+01  0.8528E+02
     -3.464  0.7690E+01  0.8607E+02
     -3.364  0.7197E+01  0.8681E+02
     -3.264  0.1472E+02  0.8790E+02
     -3.164  0.9916E+01  0.8913E+02
     -3.064  0.1593E+02  0.9142E+02
     -2.965  0.3612E+02  0.9303E+02
     -2.865  0.2927E+02  0.9588E+02
     -2.765  0.2729E+02  0.9909E+02
     -2.665  0.1219E+02  0.1010E+03
     -2.565  0.2798E+02  0.1021E+03
     -2.465  0.5139E+01  0.1042E+03
     -2.365  0.1585E+02  0.1067E+03
     -2.265  0.3543E+01  0.1076E+03
     -2.165  0.4063E+01  0.1093E+03
     -2.065  0.1980E+02  0.1098E+03
     -1.965  0.5772E+01  0.1114E+03
     -1.865  0.1824E+02  0.1125E+03
     -1.766  0.3286E+02  0.1152E+03
     -1.666  0.3206E+02  0.1182E+03
     -1.566  0.2853E+02  0.1213E+03
     -1.466  0.2117E+02  0.1238E+03
     -1.366  0.1973E+02  0.1258E+03
     -1.266  0.1348E+02  0.1274E+03
     -1.166  0.1156E+02  0.1286E+03
     -1.066  0.1736E+02  0.1300E+03
     -0.966  0.2196E+02  0.1321E+03
     -0.866  0.1790E+02  0.1347E+03
     -0.766  0.3935E+02  0.1364E+03
     -0.666  0.3457E+02  0.1390E+03
     -0.566  0.2495E+02  0.1426E+03
     -0.467  0.1190E+02  0.1445E+03
     -0.367  0.2589E+02  0.1457E+03
     -0.267  0.7835E+01  0.1468E+03
     -0.167  0.1274E+02  0.1478E+03
     -0.067  0.3848E+02  0.1498E+03
      0.033  0.3620E+02  0.1525E+03
      0.133  0.3669E+02  0.1552E+03
      0.233  0.2758E+02  0.1585E+03
      0.333  0.1084E+02  0.1602E+03
      0.433  0.0000E+00  0.1620E+03
      0.533  0.1551E+02  0.1652E+03
      0.633  0.2900E+02  0.1680E+03
      0.733  0.2153E+02  0.1700E+03
      0.832  0.2191E+02  0.1716E+03
      0.932  0.2922E+02  0.1744E+03
      1.032  0.6031E+02  0.1770E+03
      1.132  0.1510E+02  0.1795E+03
      1.232  0.1745E+02  0.1815E+03
      1.332  0.3329E+02  0.1849E+03
      1.432  0.4106E+02  0.1889E+03
      1.532  0.3770E+02  0.1931E+03
      1.632  0.3726E+02  0.1970E+03
      1.732  0.1777E+02  0.2001E+03
      1.832  0.1632E+01  0.2021E+03
      1.932  0.3420E+01  0.2023E+03
      2.032  0.0000E+00  0.2040E+03
      2.131  0.0000E+00  0.2040E+03
      2.231  0.0000E+00  0.2040E+03
      2.331  0.0000E+00  0.2040E+03
      2.431  0.0000E+00  0.2040E+03
      2.531  0.0000E+00  0.2040E+03
      2.631  0.0000E+00  0.2040E+03
      2.731  0.0000E+00  0.2040E+03
      2.831  0.0000E+00  0.2040E+03
      2.931  0.0000E+00  0.2040E+03
      3.031  0.0000E+00  0.2040E+03
      3.131  0.0000E+00  0.2040E+03
      3.231  0.0000E+00  0.2040E+03
      3.330  0.0000E+00  0.2040E+03
      3.430  0.0000E+00  0.2040E+03
      3.530  0.0000E+00  0.2040E+03
      3.630  0.0000E+00  0.2040E+03
      3.730  0.0000E+00  0.2040E+03
      3.830  0.0000E+00  0.2040E+03
      3.930  0.0000E+00  0.2040E+03
      4.030  0.0000E+00  0.2040E+03
