 vasp.5.4.4.18Apr17-6-g9f103f2a35 (build Jun 08 2018 12:06:12) complex          
  
 executed on             LinuxIFC date 2019.06.06  06:59:52
 running on   72 total cores
 distrk:  each k-point on   72 cores,    1 groups
 distr:  one band on NCORES_PER_BAND=  24 cores,    3 groups


--------------------------------------------------------------------------------------------------------


 INCAR:
 POTCAR:    PAW_PBE Mg 13Apr2007                  
 POTCAR:    PAW_PBE O 08Apr2002                   
 POTCAR:    PAW_PBE H 15Jun2001                   

 ----------------------------------------------------------------------------- 
|                                                                             |
|           W    W    AA    RRRRR   N    N  II  N    N   GGGG   !!!           |
|           W    W   A  A   R    R  NN   N  II  NN   N  G    G  !!!           |
|           W    W  A    A  R    R  N N  N  II  N N  N  G       !!!           |
|           W WW W  AAAAAA  RRRRR   N  N N  II  N  N N  G  GGG   !            |
|           WW  WW  A    A  R   R   N   NN  II  N   NN  G    G                |
|           W    W  A    A  R    R  N    N  II  N    N   GGGG   !!!           |
|                                                                             |
|      For optimal performance we recommend to set                            |
|        NCORE= 4 - approx SQRT( number of cores)                             |
|      NCORE specifies how many cores store one orbital (NPAR=cpu/NCORE).     |
|      This setting can  greatly improve the performance of VASP for DFT.     |
|      The default,   NCORE=1            might be grossly inefficient         |
|      on modern multi-core architectures or massively parallel machines.     |
|      Do your own testing !!!!                                               |
|      Unfortunately you need to use the default for GW and RPA calculations. |
|      (for HF NCORE is supported but not extensively tested yet)             |
|                                                                             |
 ----------------------------------------------------------------------------- 


 ----------------------------------------------------------------------------- 
|                                                                             |
|  ADVICE TO THIS USER RUNNING 'VASP/VAMP'   (HEAR YOUR MASTER'S VOICE ...):  |
|                                                                             |
|      You have switched on vdW-DFT.                                          |
|      This routine was written and supplied by Jiri Klimes.                  |
|      We recommed that you carefully read and cite the following             |
|      publication                                                            |
|      J. Klimes, D.R. Bowler, A. Michelides                                  |
|        J. Phys.: Cond Matt. 22 022201 (2010)                                |
|      J. Klimes, D.R. Bowler, A. Michelides                                  |
|        Phys. Rev. B. 83, 195131 (2011)                                      |
|      and references therein.                                                |
|                                                                             |
 ----------------------------------------------------------------------------- 

 POTCAR:    PAW_PBE Mg 13Apr2007                  
   VRHFIN =Mg: s2p0                                                             
   LEXCH  = PE                                                                  
   EATOM  =    23.0369 eV,    1.6932 Ry                                         
                                                                                
   TITEL  = PAW_PBE Mg 13Apr2007                                                
   LULTRA =        F    use ultrasoft PP ?                                      
   IUNSCR =        1    unscreen: 0-lin 1-nonlin 2-no                           
   RPACOR =    1.500    partial core radius                                     
   POMASS =   24.305; ZVAL   =    2.000    mass and valenz                      
   RCORE  =    2.000    outmost cutoff radius                                   
   RWIGS  =    2.880; RWIGS  =    1.524    wigner-seitz radius (au A)           
   ENMAX  =  200.000; ENMIN  =  100.000 eV                                      
   RCLOC  =    1.506    cutoff for local pot                                    
   LCOR   =        T    correct aug charges                                     
   LPAW   =        T    paw PP                                                  
   EAUG   =  454.734                                                            
   DEXC   =    0.000                                                            
   RMAX   =    2.045    core radius for proj-oper                               
   RAUG   =    1.300    factor for augmentation sphere                          
   RDEP   =    2.025    radius for radial grids                                 
   RDEPT  =    1.942    core radius for aug-charge                              
                                                                                
   Atomic configuration                                                         
    6 entries                                                                   
     n  l   j            E        occ.                                          
     1  0  0.50     -1259.6230   2.0000                                         
     2  0  0.50       -79.8442   2.0000                                         
     2  1  1.50       -46.6121   6.0000                                         
     3  0  0.50        -4.7055   2.0000                                         
     3  1  0.50        -1.3660   0.0000                                         
     3  2  1.50        -1.3606   0.0000                                         
   Description                                                                  
     l       E           TYP  RCUT    TYP  RCUT                                 
     0     -4.7054661     23  2.000                                             
     0     27.2116520     23  2.000                                             
     1      1.3605826     23  2.000                                             
     1     27.2116520     23  2.000                                             
     2     -1.3605826     23  2.000                                             
  local pseudopotential read in
  partial core-charges read in
  partial kinetic energy density read in
  atomic valenz-charges read in
  non local Contribution for L=           0  read in
    real space projection operators read in
  non local Contribution for L=           0  read in
    real space projection operators read in
  non local Contribution for L=           1  read in
    real space projection operators read in
  non local Contribution for L=           1  read in
    real space projection operators read in
  non local Contribution for L=           2  read in
    real space projection operators read in
    PAW grid and wavefunctions read in
 
   number of l-projection  operators is LMAX  =           5
   number of lm-projection operators is LMMAX =          13
 
 POTCAR:    PAW_PBE O 08Apr2002                   
   VRHFIN =O: s2p4                                                              
   LEXCH  = PE                                                                  
   EATOM  =   432.3788 eV,   31.7789 Ry                                         
                                                                                
   TITEL  = PAW_PBE O 08Apr2002                                                 
   LULTRA =        F    use ultrasoft PP ?                                      
   IUNSCR =        1    unscreen: 0-lin 1-nonlin 2-no                           
   RPACOR =    1.200    partial core radius                                     
   POMASS =   16.000; ZVAL   =    6.000    mass and valenz                      
   RCORE  =    1.520    outmost cutoff radius                                   
   RWIGS  =    1.550; RWIGS  =    0.820    wigner-seitz radius (au A)           
   ENMAX  =  400.000; ENMIN  =  300.000 eV                                      
   ICORE  =        2    local potential                                         
   LCOR   =        T    correct aug charges                                     
   LPAW   =        T    paw PP                                                  
   EAUG   =  605.392                                                            
   DEXC   =    0.000                                                            
   RMAX   =    1.553    core radius for proj-oper                               
   RAUG   =    1.300    factor for augmentation sphere                          
   RDEP   =    1.550    radius for radial grids                                 
   RDEPT  =    1.329    core radius for aug-charge                              
                                                                                
   Atomic configuration                                                         
    4 entries                                                                   
     n  l   j            E        occ.                                          
     1  0  0.50      -514.6923   2.0000                                         
     2  0  0.50       -23.9615   2.0000                                         
     2  1  0.50        -9.0305   4.0000                                         
     3  2  1.50        -9.5241   0.0000                                         
   Description                                                                  
     l       E           TYP  RCUT    TYP  RCUT                                 
     0    -23.9615318     23  1.200                                             
     0     -9.5240782     23  1.200                                             
     1     -9.0304911     23  1.520                                             
     1      8.1634956     23  1.520                                             
     2     -9.5240782      7  1.500                                             
  local pseudopotential read in
  partial core-charges read in
  partial kinetic energy density read in
  kinetic energy density of atom read in
  atomic valenz-charges read in
  non local Contribution for L=           0  read in
    real space projection operators read in
  non local Contribution for L=           0  read in
    real space projection operators read in
  non local Contribution for L=           1  read in
    real space projection operators read in
  non local Contribution for L=           1  read in
    real space projection operators read in
    PAW grid and wavefunctions read in
 
   number of l-projection  operators is LMAX  =           4
   number of lm-projection operators is LMMAX =           8
 
 POTCAR:    PAW_PBE H 15Jun2001                   
   VRHFIN =H: ultrasoft test                                                    
   LEXCH  = PE                                                                  
   EATOM  =    12.4884 eV,    0.9179 Ry                                         
                                                                                
   TITEL  = PAW_PBE H 15Jun2001                                                 
   LULTRA =        F    use ultrasoft PP ?                                      
   IUNSCR =        0    unscreen: 0-lin 1-nonlin 2-no                           
   RPACOR =    0.000    partial core radius                                     
   POMASS =    1.000; ZVAL   =    1.000    mass and valenz                      
   RCORE  =    1.100    outmost cutoff radius                                   
   RWIGS  =    0.700; RWIGS  =    0.370    wigner-seitz radius (au A)           
   ENMAX  =  250.000; ENMIN  =  200.000 eV                                      
   RCLOC  =    0.701    cutoff for local pot                                    
   LCOR   =        T    correct aug charges                                     
   LPAW   =        T    paw PP                                                  
   EAUG   =  400.000                                                            
   RMAX   =    1.123    core radius for proj-oper                               
   RAUG   =    1.200    factor for augmentation sphere                          
   RDEP   =    1.112    radius for radial grids                                 
   RDEPT  =    0.926    core radius for aug-charge                              
                                                                                
   Atomic configuration                                                         
    2 entries                                                                   
     n  l   j            E        occ.                                          
     1  0  0.50        -6.4927   1.0000                                         
     2  1  0.50        -3.4015   0.0000                                         
   Description                                                                  
     l       E           TYP  RCUT    TYP  RCUT                                 
     0     -6.4927494     23  1.100                                             
     0      6.8029130     23  1.100                                             
     1     -4.0817478     23  1.100                                             
  local pseudopotential read in
  atomic valenz-charges read in
  non local Contribution for L=           0  read in
    real space projection operators read in
  non local Contribution for L=           0  read in
    real space projection operators read in
  non local Contribution for L=           1  read in
    real space projection operators read in
    PAW grid and wavefunctions read in
 
   number of l-projection  operators is LMAX  =           3
   number of lm-projection operators is LMMAX =           5
 
 Optimization of the real space projectors (new method)

 maximal supplied QI-value         = 18.90
 optimisation between [QCUT,QGAM] = [ 11.53, 23.24] = [ 37.21,151.29] Ry 
 Optimized for a Real-space Cutoff    1.28 Angstroem

   l    n(q)    QCUT    max X(q) W(low)/X(q) W(high)/X(q)  e(spline) 
   0      9    11.527    28.265    0.62E-04    0.53E-04    0.73E-07
   0      9    11.527    10.429    0.52E-04    0.40E-04    0.58E-07
   1      8    11.527    13.073    0.98E-04    0.18E-03    0.86E-07
   1      8    11.527     9.625    0.79E-04    0.15E-03    0.74E-07
   2      8    11.527     4.652    0.22E-03    0.72E-04    0.47E-07
 Optimization of the real space projectors (new method)

 maximal supplied QI-value         = 24.76
 optimisation between [QCUT,QGAM] = [ 11.64, 23.27] = [ 37.91,151.63] Ry 
 Optimized for a Real-space Cutoff    1.14 Angstroem

   l    n(q)    QCUT    max X(q) W(low)/X(q) W(high)/X(q)  e(spline) 
   0      8    11.635    20.381    0.10E-03    0.33E-03    0.24E-06
   0      8    11.635    15.268    0.11E-03    0.35E-03    0.26E-06
   1      7    11.635     5.964    0.24E-03    0.31E-03    0.30E-06
   1      7    11.635     5.382    0.22E-03    0.25E-03    0.26E-06
 Optimization of the real space projectors (new method)

 maximal supplied QI-value         = 34.20
 optimisation between [QCUT,QGAM] = [ 11.63, 23.26] = [ 37.87,151.49] Ry 
 Optimized for a Real-space Cutoff    1.21 Angstroem

   l    n(q)    QCUT    max X(q) W(low)/X(q) W(high)/X(q)  e(spline) 
   0      8    11.629    19.460    0.17E-03    0.34E-03    0.21E-06
   0      8    11.629    12.209    0.16E-03    0.33E-03    0.21E-06
   1      8    11.629     4.655    0.18E-03    0.16E-03    0.26E-06

 ----------------------------------------------------------------------------- 
|                                                                             |
|  ADVICE TO THIS USER RUNNING 'VASP/VAMP'   (HEAR YOUR MASTER'S VOICE ...):  |
|                                                                             |
|      You enforced a specific xc-type in the INCAR file,                     |
|      a different type was found on the POTCAR file                          |
|          I HOPE YOU KNOW, WHAT YOU ARE  DOING                               |
|                                                                             |
 ----------------------------------------------------------------------------- 

  PAW_PBE Mg 13Apr2007                  :
 energy of atom  1       EATOM=  -23.0369
 kinetic energy error for atom=    0.0000 (will be added to EATOM!!)
  PAW_PBE O 08Apr2002                   :
 energy of atom  2       EATOM= -432.3788
 kinetic energy error for atom=    0.0208 (will be added to EATOM!!)
  PAW_PBE H 15Jun2001                   :
 energy of atom  3       EATOM=  -12.4884
 kinetic energy error for atom=    0.0014 (will be added to EATOM!!)
 
 
 POSCAR: Mg   O    H                             
  positions in direct lattice
  velocities in cartesian coordinates
 exchange correlation table for  LEXCH =       42
   RHO(1)=    0.500       N(1)  =     2000
   RHO(2)=  100.500       N(2)  =     4000

 VTST: version 3.2, (02/03/18)

 CHAIN: initializing optimizer
 
 OPT: Using VASP Dynamics algorithm
 CHAIN: Read ICHAIN            0
 
 POSCAR: Mg   O    H                             
  positions in direct lattice
  velocities in cartesian coordinates
 


--------------------------------------------------------------------------------------------------------


 ion  position               nearest neighbor table
   1  0.000  0.000  0.000-   7 3.19  25 3.19  19 3.19  10 3.19   4 3.19  13 3.19  44 3.19  32 3.19
                            28 3.19
   2  1.000  1.000  0.158-  33 3.09  44 3.14  29 3.14  32 3.14  28 3.15  20 3.17  26 3.17   5 3.18
                            14 3.19  45 3.19   8 3.19  11 3.19
   3  0.004  0.005  0.330-  46 2.14  15 3.16  12 3.21  27 3.21   6 3.24  21 3.24   9 3.25  45 3.51
                            29 3.53  33 3.64
   4  0.000  0.333  0.000-  22 3.19  13 3.19  19 3.19  16 3.19   1 3.19   7 3.19  40 3.19  30 3.19
                            28 3.19
   5  0.001  0.333  0.157-  28 3.12  40 3.13  30 3.13  41 3.14  31 3.17  14 3.18   2 3.18  17 3.18
                             8 3.19  29 3.19  20 3.19  23 3.20
   6  0.994  0.331  0.310-  31 3.05  41 3.05  29 3.06  24 3.13  15 3.16  21 3.17   9 3.18   3 3.24
                            18 3.25
   7  0.000  0.667  0.000-   1 3.19  10 3.19  25 3.19  16 3.19  22 3.19   4 3.19  42 3.19  32 3.19
                            30 3.19
   8  0.999  0.665  0.157-  33 3.10  42 3.12  30 3.13  32 3.14  26 3.17  31 3.17  23 3.17   5 3.19
                            17 3.19   2 3.19  11 3.20  43 3.26
   9  0.007  0.671  0.313-  43 3.08  12 3.09  31 3.12  33 3.15  18 3.17   6 3.18  27 3.21   3 3.25
                            24 3.37
  10  0.333  0.000  0.000-  16 3.19   7 3.19  19 3.19   1 3.19  22 3.19  13 3.19  32 3.19  34 3.19
                            38 3.19
  11  0.334  1.000  0.157-  38 3.11  34 3.12  32 3.12  33 3.13  39 3.17  14 3.18  23 3.18  17 3.18
                            20 3.19   2 3.19   8 3.20  35 3.20
  12  0.328  0.997  0.308-  35 3.02  33 3.03  39 3.04   9 3.09  24 3.16   3 3.21  21 3.24  15 3.25
                            18 3.31
  13  0.333  0.333  0.000-  22 3.19   4 3.19  10 3.19   1 3.19  25 3.19  16 3.19  28 3.19  36 3.19
                            34 3.19
  14  0.333  0.333  0.158-  34 3.14  28 3.14  36 3.14  35 3.15  29 3.16   5 3.18  37 3.18  23 3.18
                            11 3.18   2 3.19  17 3.19  26 3.20
  15  0.327  0.336  0.315-  61 1.97  29 3.13  18 3.15  37 3.16   3 3.16   6 3.16  35 3.20  27 3.24
                            12 3.25  24 3.32
  16  0.333  0.667  0.000-  10 3.19  19 3.19   7 3.19  25 3.19   4 3.19  13 3.19  38 3.19  30 3.19
                            36 3.19
  17  0.333  0.667  0.158-  39 3.10  31 3.11  30 3.15  36 3.15  38 3.15  37 3.15  20 3.18  11 3.18
                             5 3.18   8 3.19  14 3.19  26 3.20
  18  0.326  0.660  0.333-  61 1.99  51 2.14  15 3.15   9 3.17   6 3.25  27 3.29  21 3.29  12 3.31
                            31 3.61  37 3.65
  19  0.667  0.000  0.000-  25 3.19  16 3.19   1 3.19  10 3.19   4 3.19  22 3.19  38 3.19  44 3.19
                            40 3.19
  20  0.667  0.998  0.157-  41 3.11  44 3.12  38 3.13  40 3.13  39 3.15   2 3.17  17 3.18  26 3.18
                            11 3.19   5 3.19  23 3.20  45 3.25
  21  0.666  0.996  0.313-  45 3.06  24 3.08  39 3.12  41 3.15   6 3.17  27 3.19  12 3.24   3 3.24
                            18 3.29
  22  0.667  0.333  0.000-  13 3.19   4 3.19  10 3.19  25 3.19   7 3.19  19 3.19  34 3.19  42 3.19
                            40 3.19
  23  0.667  0.333  0.159-  41 3.09  35 3.12  42 3.16  34 3.16  40 3.16  26 3.17   8 3.17  14 3.18
                            11 3.18   5 3.20  43 3.20  20 3.20
  24  0.662  0.315  0.324-  49 2.11  21 3.08   6 3.13  12 3.16  27 3.32  15 3.32  35 3.36  43 3.37
                             9 3.37  41 3.39
  25  0.667  0.667  0.000-   1 3.19  19 3.19   7 3.19  16 3.19  22 3.19  13 3.19  36 3.19  42 3.19
                            44 3.19
  26  0.668  0.666  0.159-  37 3.13  42 3.16   8 3.17  44 3.17  23 3.17   2 3.17  36 3.17  45 3.18
                            20 3.18  14 3.20  17 3.20  43 3.22
  27  0.672  0.667  0.323-  50 1.98  61 2.15  21 3.19   9 3.21   3 3.21  15 3.24  43 3.26  45 3.28
                            18 3.29  24 3.32  37 3.36
  28  0.111  0.222  0.080-   5 3.12  14 3.14   2 3.15  44 3.19  32 3.19  40 3.19  34 3.19  36 3.19
                            30 3.19   1 3.19  13 3.19   4 3.19
  29  0.112  0.219  0.237-   6 3.06  15 3.13   2 3.14  14 3.16  33 3.16  45 3.16  35 3.17   5 3.19
                            31 3.22  37 3.23  41 3.23   3 3.53
  30  0.111  0.556  0.080-   8 3.13   5 3.13  17 3.15  32 3.19  42 3.19  38 3.19  40 3.19  36 3.19
                            28 3.19  16 3.19   7 3.19   4 3.19
  31  0.117  0.558  0.236-   6 3.05  17 3.11   9 3.12  39 3.13  37 3.15   5 3.17   8 3.17  33 3.18
                            29 3.22  43 3.23  41 3.26  18 3.61
  32  0.111  0.889  0.080-  11 3.12   8 3.14   2 3.14  28 3.19  34 3.19  44 3.19  30 3.19  42 3.19
                            38 3.19  10 3.19   1 3.19   7 3.19
  33  0.109  0.886  0.234-  12 3.03   2 3.09   8 3.10  11 3.13  45 3.13   9 3.15  29 3.16  31 3.18
                            43 3.21  39 3.21  35 3.24   3 3.64
  34  0.444  0.222  0.080-  11 3.12  14 3.14  23 3.16  38 3.19  40 3.19  32 3.19  42 3.19  28 3.19
                            36 3.19  22 3.19  10 3.19  13 3.19
  35  0.447  0.227  0.237-  12 3.02  43 3.12  23 3.12  14 3.15  29 3.17  41 3.17  37 3.17  15 3.20
                            11 3.20  33 3.24  39 3.25  24 3.36
  36  0.444  0.556  0.080-  14 3.14  17 3.15  26 3.17  42 3.19  38 3.19  44 3.19  30 3.19  28 3.19
                            34 3.19  25 3.19  13 3.19  16 3.19
  37  0.447  0.558  0.237-  39 3.13  26 3.13  17 3.15  31 3.15  15 3.16  45 3.17  35 3.17  43 3.18
                            14 3.18  29 3.23  27 3.36  18 3.65
  38  0.444  0.889  0.080-  11 3.11  20 3.13  17 3.15  40 3.19  34 3.19  44 3.19  36 3.19  30 3.19
                            32 3.19  19 3.19  16 3.19  10 3.19
  39  0.444  0.885  0.235-  12 3.04  17 3.10  21 3.12  31 3.13  37 3.13  20 3.15  11 3.17  41 3.17
                            33 3.21  45 3.22  35 3.25
  40  0.778  0.222  0.080-   5 3.13  20 3.13  23 3.16  38 3.19  34 3.19  44 3.19  28 3.19  30 3.19
                            42 3.19   4 3.19  19 3.19  22 3.19
  41  0.774  0.219  0.235-   6 3.05  23 3.09  20 3.11   5 3.14  21 3.15  35 3.17  43 3.17  39 3.17
                            45 3.21  29 3.23  31 3.26  24 3.39
  42  0.778  0.556  0.080-   8 3.12  26 3.16  23 3.16  36 3.19  44 3.19  30 3.19  32 3.19  34 3.19
                            40 3.19  25 3.19   7 3.19  22 3.19
  43  0.775  0.550  0.240-   9 3.08  35 3.12  41 3.17  37 3.18  45 3.18  23 3.20  33 3.21  26 3.22
                            31 3.23  27 3.26   8 3.26  24 3.37
  44  0.778  0.889  0.080-  20 3.12   2 3.14  26 3.17  28 3.19  40 3.19  42 3.19  32 3.19  38 3.19
                            36 3.19   1 3.19  19 3.19  25 3.19
  45  0.782  0.887  0.239-  21 3.06  33 3.13  29 3.16  37 3.17  26 3.18  43 3.18   2 3.19  41 3.21
                            39 3.22  20 3.25  27 3.28   3 3.51
  46  0.996  0.013  0.396-  53 0.98  52 0.99   3 2.14
  47  0.279  0.971  0.412-  54 0.98  55 1.00
  48  0.897  0.249  0.411-  56 0.98  57 1.00
  49  0.636  0.328  0.388-  59 0.98  58 1.05  24 2.11
  50  0.656  0.603  0.381-  60 0.97  27 1.98
  51  0.301  0.693  0.397-  63 0.98  62 1.00  18 2.14
  52  0.972  0.094  0.408-  46 0.99
  53  0.082  0.010  0.411-  46 0.98
  54  0.383  0.074  0.412-  47 0.98
  55  0.247  0.958  0.382-  47 1.00
  56  0.994  0.355  0.408-  48 0.98
  57  0.862  0.217  0.382-  48 1.00
  58  0.644  0.441  0.392-  49 1.05
  59  0.720  0.324  0.404-  49 0.98
  60  0.652  0.678  0.400-  50 0.97
  61  0.433  0.535  0.348-  15 1.97  18 1.99  27 2.15
  62  0.300  0.791  0.407-  51 1.00
  63  0.362  0.668  0.417-  51 0.98
 
  LATTYP: Found a hexagonal cell.
 ALAT       =     9.5557527542
 C/A-ratio  =     3.4141837076
  
  Lattice vectors:
  
 A1 = (   9.5557527542,   0.0000000000,   0.0000000000)
 A2 = (  -4.7778763771,   8.2755246374,   0.0000000000)
 A3 = (   0.0000000000,   0.0000000000,  32.6250953674)


Analysis of symmetry for initial positions (statically):
=====================================================================
 Subroutine PRICEL returns:
 Original cell was already a primitive cell.
 

 Routine SETGRP: Setting up the symmetry group for a 
 hexagonal supercell.


 Subroutine GETGRP returns: Found  1 space group operations
 (whereof  1 operations were pure point group operations)
 out of a pool of 24 trial point group operations.


The static configuration has the point symmetry C_1 .


Analysis of symmetry for dynamics (positions and initial velocities):
=====================================================================
 Subroutine PRICEL returns:
 Original cell was already a primitive cell.
 

 Routine SETGRP: Setting up the symmetry group for a 
 hexagonal supercell.


 Subroutine GETGRP returns: Found  1 space group operations
 (whereof  1 operations were pure point group operations)
 out of a pool of 24 trial point group operations.


The dynamic configuration has the point symmetry C_1 .


Analysis of constrained symmetry for selective dynamics:
=====================================================================
 Subroutine PRICEL returns:
 Original cell was already a primitive cell.
 

 Routine SETGRP: Setting up the symmetry group for a 
 hexagonal supercell.


 Subroutine GETGRP returns: Found  1 space group operations
 (whereof  1 operations were pure point group operations)
 out of a pool of 24 trial point group operations.


The constrained configuration has the point symmetry C_1 .


 Subroutine INISYM returns: Found  1 space group operations
 (whereof  1 operations are pure point group operations),
 and found     1 'primitive' translations

 
 
 KPOINTS: Auto                                    

Automatic generation of k-mesh.
Space group operators:
 irot       det(A)        alpha          n_x          n_y          n_z        tau_x        tau_y        tau_z
    1     1.000000     0.000000     1.000000     0.000000     0.000000     0.000000     0.000000     0.000000
 
 Subroutine IBZKPT returns following result:
 ===========================================
 
 Found      5 irreducible k-points:
 
 Following reciprocal coordinates:
            Coordinates               Weight
  0.000000  0.000000  0.000000      1.000000
  0.333333 -0.000000  0.000000      2.000000
  0.000000  0.333333  0.000000      2.000000
  0.333333  0.333333  0.000000      2.000000
 -0.333333  0.333333  0.000000      2.000000
 
 Following cartesian coordinates:
            Coordinates               Weight
  0.000000  0.000000  0.000000      1.000000
  0.034883  0.020140  0.000000      2.000000
  0.000000  0.040279  0.000000      2.000000
  0.034883  0.060419  0.000000      2.000000
 -0.034883  0.020140  0.000000      2.000000
 
 TETIRR: Found     24 inequivalent tetrahedra from       54


--------------------------------------------------------------------------------------------------------




 Dimension of arrays:
   k-points           NKPTS =      5   k-points in BZ     NKDIM =      5   number of bands    NBANDS=    102
   number of dos      NEDOS =    301   number of ions     NIONS =     63
   non local maximal  LDIM  =      5   non local SUM 2l+1 LMDIM =     13
   total plane-waves  NPLWV = ******
   max r-space proj   IRMAX =   4509   max aug-charges    IRDMAX=  21536
   dimension x,y,z NGX =    72 NGY =   72 NGZ =  250
   dimension x,y,z NGXF=   144 NGYF=  144 NGZF=  500
   support grid    NGXF=   144 NGYF=  144 NGZF=  500
   ions per type =              45   6  12
   NGX,Y,Z   is equivalent  to a cutoff of  12.53, 12.53, 12.74 a.u.
   NGXF,Y,Z  is equivalent  to a cutoff of  25.05, 25.05, 25.48 a.u.

 SYSTEM =  Mg_slab_in_a_box                        
 POSCAR =  Mg   O    H                             

 Startparameter for this run:
   NWRITE =      2    write-flag & timer
   PREC   = accura    normal or accurate (medium, high low for compatibility)
   ISTART =      0    job   : 0-new  1-cont  2-samecut
   ICHARG =      2    charge: 1-file 2-atom 10-const
   ISPIN  =      1    spin polarized calculation?
   LNONCOLLINEAR =      F non collinear calculations
   LSORBIT =      F    spin-orbit coupling
   INIWAV =      1    electr: 0-lowe 1-rand  2-diag
   LASPH  =      T    aspherical Exc in radial PAW
   METAGGA=      F    non-selfconsistent MetaGGA calc.

 Electronic Relaxation 1
   ENCUT  =  520.0 eV  38.22 Ry    6.18 a.u.  17.77 17.77 60.66*2*pi/ulx,y,z
   ENINI  =  520.0     initial cutoff
   ENAUG  =  605.4 eV  augmentation charge cutoff
   NELM   =    300;   NELMIN=  6; NELMDL=-12     # of ELM steps 
   EDIFF  = 0.5E-05   stopping-criterion for ELM
   LREAL  =      T    real-space projection
   NLSPLINE    = F    spline interpolate recip. space projectors
   LCOMPAT=      F    compatible to vasp.4.4
   GGA_COMPAT  = T    GGA compatible to vasp.4.4-vasp.4.6
   LMAXPAW     = -100 max onsite density
   LMAXMIX     =    2 max onsite mixed and CHGCAR
   VOSKOWN=      0    Vosko Wilk Nusair interpolation
   ROPT   =   -0.00025  -0.00025  -0.00025
 Ionic relaxation
   EDIFFG = 0.5E-04   stopping-criterion for IOM
   NSW    =      0    number of steps for IOM
   NBLOCK =      1;   KBLOCK =      1    inner block; outer block 
   IBRION =     -1    ionic relax: 0-MD 1-quasi-New 2-CG
   NFREE  =      0    steps in history (QN), initial steepest desc. (CG)
   ISIF   =      2    stress and relaxation
   IWAVPR =     10    prediction:  0-non 1-charg 2-wave 3-comb
   ISYM   =      2    0-nonsym 1-usesym 2-fastsym
   LCORR  =      T    Harris-Foulkes like correction to forces

   POTIM  = 0.5000    time-step for ionic-motion
   TEIN   =    0.0    initial temperature
   TEBEG  =    0.0;   TEEND  =   0.0 temperature during run
   SMASS  =  -3.00    Nose mass-parameter (am)
   estimated Nose-frequenzy (Omega)   =  0.10E-29 period in steps =****** mass=  -0.209E-26a.u.
   SCALEE = 1.0000    scale energy and forces
   NPACO  =    256;   APACO  = 16.0  distance and # of slots for P.C.
   PSTRESS=    0.0 pullay stress

  Mass of Ions in am
   POMASS =  24.30 16.00  1.00
  Ionic Valenz
   ZVAL   =   2.00  6.00  1.00
  Atomic Wigner-Seitz radii
   RWIGS  =  -1.00 -1.00 -1.00
  virtual crystal weights 
   VCA    =   1.00  1.00  1.00
   NELECT =     138.0000    total number of electrons
   NUPDOWN=      -1.0000    fix difference up-down

 DOS related values:
   EMIN   =  10.00;   EMAX   =-10.00  energy-range for DOS
   EFERMI =   0.00
   ISMEAR =    -5;   SIGMA  =   0.20  broadening in eV -4-tet -1-fermi 0-gaus

 Electronic relaxation 2 (details)
   IALGO  =     48    algorithm
   LDIAG  =      T    sub-space diagonalisation (order eigenvalues)
   LSUBROT=      F    optimize rotation matrix (better conditioning)
   TURBO    =      0    0=normal 1=particle mesh
   IRESTART =      0    0=no restart 2=restart with 2 vectors
   NREBOOT  =      0    no. of reboots
   NMIN     =      0    reboot dimension
   EREF     =   0.00    reference energy to select bands
   IMIX   =      4    mixing-type and parameters
     AMIX     =   0.40;   BMIX     =  1.00
     AMIX_MAG =   1.60;   BMIX_MAG =  1.00
     AMIN     =   0.10
     WC   =   100.;   INIMIX=   1;  MIXPRE=   1;  MAXMIX= -45

 Intra band minimization:
   WEIMIN = 0.0000     energy-eigenvalue tresh-hold
   EBREAK =  0.12E-07  absolut break condition
   DEPER  =   0.30     relativ break condition  

   TIME   =   0.40     timestep for ELM

  volume/ion in A,a.u.               =      40.95       276.36
  Fermi-wavevector in a.u.,A,eV,Ry     =   0.616828  1.165635  5.176694  0.380476
  Thomas-Fermi vector in A             =   1.674695
 
 Write flags
   LWAVE        =      F    write WAVECAR
   LDOWNSAMPLE  =      F    k-point downsampling of WAVECAR
   LCHARG       =      T    write CHGCAR
   LVTOT        =      F    write LOCPOT, total local potential
   LVHAR        =      T    write LOCPOT, Hartree potential only
   LELF         =      F    write electronic localiz. function (ELF)
   LORBIT       =      0    0 simple, 1 ext, 2 COOP (PROOUT), +10 PAW based schemes


 Dipole corrections
   LMONO  =      F    monopole corrections only (constant potential shift)
   LDIPOL =      T    correct potential (dipole corrections)
   IDIPOL =      3    1-x, 2-y, 3-z, 4-all directions 
   EPSILON=  1.0000000 bulk dielectric constant

 Exchange correlation treatment:
   GGA     =    BO    GGA type
   LEXCH   =    42    internal setting for exchange type
   VOSKOWN=      0    Vosko Wilk Nusair interpolation
   LHFCALC =     F    Hartree Fock is set to
   LHFONE  =     F    Hartree Fock one center treatment
   AEXX    =    0.0000 exact exchange contribution

 vdW DFT:
   LUSE_VDW   =     T    switch on vdW DFT
   Zab_VDW    =-.8491    correlation parameter
   PARAM1     =0.1833
   PARAM2     =0.2200
   PARAM3     =0.0000
   -- rVV10 --
   BPARAM     = 6.3000
   CPARAM     = 0.0093

 Linear response parameters
   LEPSILON=     F    determine dielectric tensor
   LRPA    =     F    only Hartree local field effects (RPA)
   LNABLA  =     F    use nabla operator in PAW spheres
   LVEL    =     F    velocity operator in full k-point grid
   LINTERFAST=   F  fast interpolation
   KINTER  =     0    interpolate to denser k-point grid
   CSHIFT  =0.1000    complex shift for real part using Kramers Kronig
   OMEGAMAX=  -1.0    maximum frequency
   DEG_THRESHOLD= 0.2000000E-02 threshold for treating states as degnerate
   RTIME   =   -0.100 relaxation time in fs
  (WPLASMAI=    0.000 imaginary part of plasma frequency in eV, 0.658/RTIME)
   DFIELD  = 0.0000000 0.0000000 0.0000000 field for delta impulse in time
 
 Orbital magnetization related:
   ORBITALMAG=     F  switch on orbital magnetization
   LCHIMAG   =     F  perturbation theory with respect to B field
   DQ        =  0.001000  dq finite difference perturbation B field
   LLRAUG    =     F  two centre corrections for induced B field



--------------------------------------------------------------------------------------------------------


 Static calculation
 charge density and potential will be updated during run
 non-spin polarized calculation
 RMM-DIIS sequential band-by-band
 perform sub-space diagonalisation
    before iterative eigenvector-optimisation
 modified Broyden-mixing scheme, WC =      100.0
 initial mixing is a Kerker type mixing with AMIX =  0.4000 and BMIX =      1.0000
 Hartree-type preconditioning will be used
 using additional bands           33
 real space projection scheme for non local part
 use partial core corrections
 calculate Harris-corrections to forces 
   (improved forces if not selfconsistent)
 use gradient corrections 
 use of overlap-Matrix (Vanderbilt PP)
 Fermi weights with tetrahedron method with Bloechl corrections


--------------------------------------------------------------------------------------------------------


  energy-cutoff  :      520.00
  volume of cell :     2579.96
      direct lattice vectors                 reciprocal lattice vectors
     9.555752754  0.000000000  0.000000000     0.104649003  0.060419130  0.000000000
    -4.777876377  8.275524637  0.000000000     0.000000000  0.120838260  0.000000000
     0.000000000  0.000000000 32.625095367     0.000000000  0.000000000  0.030651251

  length of vectors
     9.555752754  9.555752754 32.625095367     0.120838260  0.120838260  0.030651251


 
 k-points in units of 2pi/SCALE and weight: Auto                                    
   0.00000000  0.00000000  0.00000000       0.111
   0.03488300  0.02013971  0.00000000       0.222
   0.00000000  0.04027942  0.00000000       0.222
   0.03488300  0.06041913  0.00000000       0.222
  -0.03488300  0.02013971  0.00000000       0.222
 
 k-points in reciprocal lattice and weights: Auto                                    
   0.00000000  0.00000000  0.00000000       0.111
   0.33333333 -0.00000000  0.00000000       0.222
   0.00000000  0.33333333  0.00000000       0.222
   0.33333333  0.33333333  0.00000000       0.222
  -0.33333333  0.33333333  0.00000000       0.222
 
 position of ions in fractional coordinates (direct lattice) 
   0.00000000  0.00000000  0.00000000
   0.99954679  0.99954752  0.15795291
   0.00406154  0.00465881  0.33010756
   0.00000001  0.33333336  0.00000000
   0.00061058  0.33269983  0.15747359
   0.99361597  0.33140713  0.30972931
   0.00000002  0.66666672  0.00000000
   0.99909687  0.66526006  0.15742498
   0.00733752  0.67080738  0.31333759
   0.33333334  0.00000000  0.00000000
   0.33391827  0.99998647  0.15696972
   0.32776852  0.99714316  0.30841872
   0.33333335  0.33333336  0.00000000
   0.33324359  0.33277496  0.15779886
   0.32654098  0.33608132  0.31539354
   0.33333336  0.66666672  0.00000000
   0.33323539  0.66651689  0.15825645
   0.32623379  0.66027297  0.33320776
   0.66666668  0.00000000  0.00000000
   0.66686626  0.99844635  0.15731147
   0.66555101  0.99618353  0.31288658
   0.66666668  0.33333336  0.00000000
   0.66662782  0.33346916  0.15863223
   0.66206375  0.31504908  0.32390713
   0.66666670  0.66666672  0.00000000
   0.66840680  0.66639899  0.15880211
   0.67152956  0.66728154  0.32252770
   0.11111113  0.22222222  0.07982145
   0.11178495  0.21854725  0.23663435
   0.11111114  0.55555561  0.07982145
   0.11678775  0.55776136  0.23600292
   0.11111116  0.88888894  0.07982145
   0.10870670  0.88636762  0.23395361
   0.44444450  0.22222222  0.07982145
   0.44705772  0.22660995  0.23654533
   0.44444450  0.55555561  0.07982145
   0.44708737  0.55840401  0.23676748
   0.44444451  0.88888894  0.07982145
   0.44412930  0.88460410  0.23546666
   0.77777779  0.22222222  0.07982145
   0.77430972  0.21872254  0.23455906
   0.77777781  0.55555561  0.07982145
   0.77513026  0.55016433  0.23972209
   0.77777784  0.88888894  0.07982145
   0.78174414  0.88657112  0.23863415
   0.99581168  0.01344680  0.39558922
   0.27894595  0.97135267  0.41182625
   0.89743518  0.24850260  0.41143877
   0.63575914  0.32815424  0.38787187
   0.65561566  0.60281160  0.38074232
   0.30128024  0.69254621  0.39731179
   0.97194748  0.09364161  0.40805340
   0.08159863  0.01028190  0.41147699
   0.38256331  0.07362768  0.41176625
   0.24652897  0.95755413  0.38226504
   0.99431409  0.35529172  0.40845096
   0.86189519  0.21737913  0.38237298
   0.64388358  0.44077429  0.39198965
   0.72041823  0.32425116  0.40406201
   0.65172741  0.67843808  0.40001875
   0.43308764  0.53451333  0.34847807
   0.30013999  0.79116591  0.40685236
   0.36231794  0.66829435  0.41722489
 
 position of ions in cartesian coordinates  (Angst):
   0.00000000  0.00000000  0.00000000
   4.77570746  8.27178016  5.15322867
   0.01655185  0.03855413 10.76979057
  -1.59262550  2.75850844  0.00000000
  -1.58376414  2.75326567  5.13759088
   7.91132620  2.74256790 10.10494827
  -3.18525100  5.51701689  0.00000000
   6.36859231  5.50537605  5.13600497
  -3.13491916  5.55128299 10.22266876
   3.18525100  0.00000000  0.00000000
  -1.58697126  8.27541267  5.12115197
  -1.63215179  8.25188276 10.06219006
   1.59262550  2.75850844  0.00000000
   1.59443575  2.75388738  5.14820294
   1.51458990  2.78124925 10.28974436
  -0.00000001  5.51701689  0.00000000
  -0.00022037  5.51577698  5.16313175
  -0.03729318  5.46410525 10.87093511
   6.37050200  0.00000000  0.00000000
   1.60195591  8.26266735  5.13230166
   1.60019918  8.24394132 10.20795452
   4.77787638  2.75850844  0.00000000
   4.77685625  2.75963221  5.17539174
   4.82125199  2.60719640 10.56750108
   3.18525100  5.51701689  0.00000000
   3.20315816  5.51480126  5.18093411
   3.22878169  5.52210483 10.52249690
   0.00000017  1.83900547  2.60418248
   0.02399760  1.80859316  7.72021832
  -1.59262550  4.59751415  2.60418248
  -1.54891998  4.61576785  7.69961769
  -3.18525076  7.35602236  2.60418248
  -3.19618060  7.33515709  7.63275880
   3.18525147  1.83900547  2.60418248
   3.18925873  1.87531619  7.71731380
   1.59262574  4.59751415  2.60418248
   1.60427105  4.62108611  7.72456160
   0.00000039  7.35602236  2.60418248
   0.01746075  7.32056298  7.68212219
   6.37050200  1.83900547  2.60418248
   6.35408301  1.81004380  7.65251161
   4.77787638  4.59751415  2.60418248
   4.77833593  4.55289847  7.82095590
   3.18525124  7.35602236  2.60418248
   3.23422648  7.33684115  7.78546195
   9.45148304  0.11127931 12.90613609
  -1.97546446  8.03845295 13.43587082
   7.38835402  2.05648937 13.42322911
   4.50727680  2.71564847 12.65435661
   3.38474187  4.98858225 12.42175448
  -0.42994069  5.73118324 12.96233509
   8.84028181  0.77493342 13.31278113
   0.73061072  0.08508808 13.42447618
   3.30389646  0.60930769 13.43391325
  -2.21930536  7.92426283 12.47143336
   7.80387970  2.94022534 13.32575165
   7.19744677  1.79892634 12.47495478
   4.04682718  3.64763850 12.78869969
   5.33490652  2.68334850 13.18256175
   2.98625274  5.61443101 13.05064995
   1.58463977  4.42337826 11.36913022
  -0.91202938  6.54731296 13.27359711
   0.26919284  5.53048632 13.61200183
 


--------------------------------------------------------------------------------------------------------


 k-point  1 :   0.0000 0.0000 0.0000  plane waves:   69403
 k-point  2 :   0.3333-0.0000 0.0000  plane waves:   69509
 k-point  3 :   0.0000 0.3333 0.0000  plane waves:   69509
 k-point  4 :   0.3333 0.3333 0.0000  plane waves:   69474
 k-point  5 :  -0.3333 0.3333 0.0000  plane waves:   69509

 maximum and minimum number of plane-waves per node :      2924     2870

 maximum number of plane-waves:     69509
 maximum index in each direction: 
   IXMAX=   18   IYMAX=   17   IZMAX=   60
   IXMIN=  -18   IYMIN=  -18   IZMIN=  -60


 real space projection operators:
  total allocation   :      22585.90 KBytes
  max/ min on nodes  :       1314.48        511.85


 parallel 3D FFT for wavefunctions:
    minimum data exchange during FFTs selected (reduces bandwidth)
 parallel 3D FFT for charge:
    minimum data exchange during FFTs selected (reduces bandwidth)


 total amount of memory used by VASP MPI-rank0    62223. kBytes
=======================================================================

   base      :      30000. kBytes
   nonlr-proj:       6320. kBytes
   fftplans  :       6459. kBytes
   grid      :      11407. kBytes
   one-center:         24. kBytes
   wavefun   :       8013. kBytes
 
     INWAV:  cpu time    0.0001: real time    0.0002
 Broyden mixing: mesh for mixing (old mesh)
   NGX = 35   NGY = 35   NGZ =121
  (NGX  =144   NGY  =144   NGZ  =500)
  gives a total of 148225 points

 initial charge density was supplied:
 charge density of overlapping atoms calculated
 number of electron     138.0000000 magnetization 
 keeping initial charge density in first step


--------------------------------------------------------------------------------------------------------


 Maximum index for non-local projection operator          296
 Maximum index for augmentation-charges          837 (set IRDMAX)


--------------------------------------------------------------------------------------------------------


 First call to EWALD:  gamma=   0.129
 Maximum number of real-space cells 4x 4x 1
 Maximum number of reciprocal cells 2x 2x 6

    FEWALD:  cpu time    0.0038: real time    0.0038


--------------------------------------- Iteration      1(   1)  ---------------------------------------


vdW kernel read from vdw_kernel.bindat
  0.0000  0.2424  0.5071  0.7962  1.1119  1.4567  1.8333  2.2446  2.6937  3.1842
  3.7199  4.3049  4.9438  5.6415  6.4036  7.2358  8.1446  9.1372 10.2212 11.4050
 12.6979 14.1099 15.6519 17.3360 19.1751 21.1837 23.3773 25.7729 28.3892 31.2465
 34.3669 37.7748 41.4965 45.5611 50.0000
 
    POTLOK:  cpu time   10.3966: real time   10.6211
    SETDIJ:  cpu time    0.1371: real time    0.1371
    EDDIAG:  cpu time    2.7415: real time    2.7423
  RMM-DIIS:  cpu time    2.2035: real time    2.2038
    ORTHCH:  cpu time    1.0665: real time    1.0666
 BZINTS: Fermi energy:  9.562354;138.000000 electrons
         Band energy: 211.127205;  BLOECHL correction: -0.175816
       DOS:  cpu time    0.0065: real time    0.0065
    --------------------------------------------
      LOOP:  cpu time   16.5519: real time   16.7775

 eigenvalue-minimisations  :   510
 total energy-change (2. order) : 0.1239820E+04  (-0.2792489E+04)
 number of electron     138.0000000 magnetization 
 augmentation part      138.0000000 magnetization 

 DIPCOR: dipole corrections for dipol
 direction  3 min pos   355,
 dipolmoment           0.000000      0.000000     -0.000396 electrons x Angstroem
 Tr[quadrupol]     -1870.063854

 energy correction for charged system         0.000000 eV
 dipol+quadrupol energy correction           -0.000000 eV
 added-field ion interaction          0.004210 eV  (added to PSCEN)


 Free energy of the ion-electron system (eV)
  ---------------------------------------------------
  alpha Z        PSCENC =        63.16527275
  Ewald energy   TEWEN  =     13060.57751853
  -Hartree energ DENC   =    -16288.10957048
  -exchange      EXHF   =         0.00000000
  -V(xc)+E(xc)   XCENC  =     -2051.07398443
  PAW double counting   =      5135.15659847    -2719.01140655
  entropy T*S    EENTRO =         0.00000000
  eigenvalues    EBANDS =       211.12720535
  atomic energy  EATOM  =      3827.98814510
  Solvation  Ediel_sol  =         0.00000000
  ---------------------------------------------------
  free energy    TOTEN  =      1239.81977875 eV

  energy without entropy =     1239.81977875  energy(sigma->0) =     1239.81977875


--------------------------------------------------------------------------------------------------------




--------------------------------------- Iteration      1(   2)  ---------------------------------------


    EDDIAG:  cpu time    2.7469: real time    2.7694
  RMM-DIIS:  cpu time    2.2060: real time    2.2062
    ORTHCH:  cpu time    1.0664: real time    1.0666
 BZINTS: Fermi energy:  2.111942;138.000000 electrons
         Band energy:-483.719754;  BLOECHL correction: -0.342081
       DOS:  cpu time    0.0054: real time    0.0054
    --------------------------------------------
      LOOP:  cpu time    6.0247: real time    6.0476

 eigenvalue-minimisations  :   510
 total energy-change (2. order) :-0.6948470E+03  (-0.7541293E+03)
 number of electron     138.0000000 magnetization 
 augmentation part      138.0000000 magnetization 

 DIPCOR: dipole corrections for dipol
 direction  3 min pos   355,
 dipolmoment           0.000000      0.000000     -0.000396 electrons x Angstroem
 Tr[quadrupol]     -1870.063854

 energy correction for charged system         0.000000 eV
 dipol+quadrupol energy correction           -0.000000 eV
 added-field ion interaction          0.004210 eV  (added to PSCEN)


 Free energy of the ion-electron system (eV)
  ---------------------------------------------------
  alpha Z        PSCENC =        63.16527275
  Ewald energy   TEWEN  =     13060.57751853
  -Hartree energ DENC   =    -16288.10957048
  -exchange      EXHF   =         0.00000000
  -V(xc)+E(xc)   XCENC  =     -2051.07398443
  PAW double counting   =      5135.15659847    -2719.01140655
  entropy T*S    EENTRO =         0.00000000
  eigenvalues    EBANDS =      -483.71975363
  atomic energy  EATOM  =      3827.98814510
  Solvation  Ediel_sol  =         0.00000000
  ---------------------------------------------------
  free energy    TOTEN  =       544.97281976 eV

  energy without entropy =      544.97281976  energy(sigma->0) =      544.97281976


--------------------------------------------------------------------------------------------------------




--------------------------------------- Iteration      1(   3)  ---------------------------------------


    EDDIAG:  cpu time    2.7522: real time    2.7744
  RMM-DIIS:  cpu time    2.2030: real time    2.2033
    ORTHCH:  cpu time    1.0697: real time    1.0698
 BZINTS: Fermi energy:  0.395764;138.000000 electrons
         Band energy:-718.549102;  BLOECHL correction: -0.448015
       DOS:  cpu time    0.0040: real time    0.0040
    --------------------------------------------
      LOOP:  cpu time    6.0289: real time    6.0515

 eigenvalue-minimisations  :   510
 total energy-change (2. order) :-0.2348293E+03  (-0.2985831E+03)
 number of electron     138.0000000 magnetization 
 augmentation part      138.0000000 magnetization 

 DIPCOR: dipole corrections for dipol
 direction  3 min pos   355,
 dipolmoment           0.000000      0.000000     -0.000396 electrons x Angstroem
 Tr[quadrupol]     -1870.063854

 energy correction for charged system         0.000000 eV
 dipol+quadrupol energy correction           -0.000000 eV
 added-field ion interaction          0.004210 eV  (added to PSCEN)


 Free energy of the ion-electron system (eV)
  ---------------------------------------------------
  alpha Z        PSCENC =        63.16527275
  Ewald energy   TEWEN  =     13060.57751853
  -Hartree energ DENC   =    -16288.10957048
  -exchange      EXHF   =         0.00000000
  -V(xc)+E(xc)   XCENC  =     -2051.07398443
  PAW double counting   =      5135.15659847    -2719.01140655
  entropy T*S    EENTRO =         0.00000000
  eigenvalues    EBANDS =      -718.54910213
  atomic energy  EATOM  =      3827.98814510
  Solvation  Ediel_sol  =         0.00000000
  ---------------------------------------------------
  free energy    TOTEN  =       310.14347126 eV

  energy without entropy =      310.14347126  energy(sigma->0) =      310.14347126


--------------------------------------------------------------------------------------------------------




--------------------------------------- Iteration      1(   4)  ---------------------------------------


    EDDIAG:  cpu time    2.7457: real time    2.7679
  RMM-DIIS:  cpu time    2.2102: real time    2.2105
    ORTHCH:  cpu time    1.0688: real time    1.0689
 BZINTS: Fermi energy: -0.667674;138.000000 electrons
         Band energy:-889.976331;  BLOECHL correction: -0.067580
       DOS:  cpu time    0.0054: real time    0.0054
    --------------------------------------------
      LOOP:  cpu time    6.0302: real time    6.0528

 eigenvalue-minimisations  :   510
 total energy-change (2. order) :-0.1714272E+03  (-0.1482936E+03)
 number of electron     138.0000000 magnetization 
 augmentation part      138.0000000 magnetization 

 DIPCOR: dipole corrections for dipol
 direction  3 min pos   355,
 dipolmoment           0.000000      0.000000     -0.000396 electrons x Angstroem
 Tr[quadrupol]     -1870.063854

 energy correction for charged system         0.000000 eV
 dipol+quadrupol energy correction           -0.000000 eV
 added-field ion interaction          0.004210 eV  (added to PSCEN)


 Free energy of the ion-electron system (eV)
  ---------------------------------------------------
  alpha Z        PSCENC =        63.16527275
  Ewald energy   TEWEN  =     13060.57751853
  -Hartree energ DENC   =    -16288.10957048
  -exchange      EXHF   =         0.00000000
  -V(xc)+E(xc)   XCENC  =     -2051.07398443
  PAW double counting   =      5135.15659847    -2719.01140655
  entropy T*S    EENTRO =         0.00000000
  eigenvalues    EBANDS =      -889.97633084
  atomic energy  EATOM  =      3827.98814510
  Solvation  Ediel_sol  =         0.00000000
  ---------------------------------------------------
  free energy    TOTEN  =       138.71624256 eV

  energy without entropy =      138.71624256  energy(sigma->0) =      138.71624256


--------------------------------------------------------------------------------------------------------




--------------------------------------- Iteration      1(   5)  ---------------------------------------


    EDDIAG:  cpu time    2.7498: real time    2.7699
  RMM-DIIS:  cpu time    2.2126: real time    2.2129
    ORTHCH:  cpu time    1.0620: real time    1.0621
 BZINTS: Fermi energy: -1.261824;138.000000 electrons
         Band energy:***********;  BLOECHL correction: -0.099865
       DOS:  cpu time    0.0069: real time    0.0069
    --------------------------------------------
      LOOP:  cpu time    6.0312: real time    6.0518

 eigenvalue-minimisations  :   510
 total energy-change (2. order) :-0.1148811E+03  (-0.9210737E+02)
 number of electron     138.0000000 magnetization 
 augmentation part      138.0000000 magnetization 

 DIPCOR: dipole corrections for dipol
 direction  3 min pos   355,
 dipolmoment           0.000000      0.000000     -0.000396 electrons x Angstroem
 Tr[quadrupol]     -1870.063854

 energy correction for charged system         0.000000 eV
 dipol+quadrupol energy correction           -0.000000 eV
 added-field ion interaction          0.004210 eV  (added to PSCEN)


 Free energy of the ion-electron system (eV)
  ---------------------------------------------------
  alpha Z        PSCENC =        63.16527275
  Ewald energy   TEWEN  =     13060.57751853
  -Hartree energ DENC   =    -16288.10957048
  -exchange      EXHF   =         0.00000000
  -V(xc)+E(xc)   XCENC  =     -2051.07398443
  PAW double counting   =      5135.15659847    -2719.01140655
  entropy T*S    EENTRO =         0.00000000
  eigenvalues    EBANDS =     -1004.85740470
  atomic energy  EATOM  =      3827.98814510
  Solvation  Ediel_sol  =         0.00000000
  ---------------------------------------------------
  free energy    TOTEN  =        23.83516870 eV

  energy without entropy =       23.83516870  energy(sigma->0) =       23.83516870


--------------------------------------------------------------------------------------------------------




--------------------------------------- Iteration      1(   6)  ---------------------------------------


    EDDIAG:  cpu time    2.7532: real time    2.7754
  RMM-DIIS:  cpu time    2.2101: real time    2.2104
    ORTHCH:  cpu time    1.0705: real time    1.0707
 BZINTS: Fermi energy: -1.369242;138.000000 electrons
         Band energy:***********;  BLOECHL correction: -0.077131
       DOS:  cpu time    0.0035: real time    0.0035
    --------------------------------------------
      LOOP:  cpu time    6.0374: real time    6.0600

 eigenvalue-minimisations  :   510
 total energy-change (2. order) :-0.6484823E+02  (-0.4889750E+02)
 number of electron     138.0000000 magnetization 
 augmentation part      138.0000000 magnetization 

 DIPCOR: dipole corrections for dipol
 direction  3 min pos   355,
 dipolmoment           0.000000      0.000000     -0.000396 electrons x Angstroem
 Tr[quadrupol]     -1870.063854

 energy correction for charged system         0.000000 eV
 dipol+quadrupol energy correction           -0.000000 eV
 added-field ion interaction          0.004210 eV  (added to PSCEN)


 Free energy of the ion-electron system (eV)
  ---------------------------------------------------
  alpha Z        PSCENC =        63.16527275
  Ewald energy   TEWEN  =     13060.57751853
  -Hartree energ DENC   =    -16288.10957048
  -exchange      EXHF   =         0.00000000
  -V(xc)+E(xc)   XCENC  =     -2051.07398443
  PAW double counting   =      5135.15659847    -2719.01140655
  entropy T*S    EENTRO =         0.00000000
  eigenvalues    EBANDS =     -1069.70563011
  atomic energy  EATOM  =      3827.98814510
  Solvation  Ediel_sol  =         0.00000000
  ---------------------------------------------------
  free energy    TOTEN  =       -41.01305671 eV

  energy without entropy =      -41.01305671  energy(sigma->0) =      -41.01305671


--------------------------------------------------------------------------------------------------------




--------------------------------------- Iteration      1(   7)  ---------------------------------------


    EDDIAG:  cpu time    2.7531: real time    2.7756
  RMM-DIIS:  cpu time    2.2093: real time    2.2096
    ORTHCH:  cpu time    1.0661: real time    1.0662
 BZINTS: Fermi energy: -1.412213;138.000000 electrons
         Band energy:***********;  BLOECHL correction: -0.061127
       DOS:  cpu time    0.0046: real time    0.0046
    --------------------------------------------
      LOOP:  cpu time    6.0331: real time    6.0560

 eigenvalue-minimisations  :   510
 total energy-change (2. order) :-0.2808511E+02  (-0.2096643E+02)
 number of electron     138.0000000 magnetization 
 augmentation part      138.0000000 magnetization 

 DIPCOR: dipole corrections for dipol
 direction  3 min pos   355,
 dipolmoment           0.000000      0.000000     -0.000396 electrons x Angstroem
 Tr[quadrupol]     -1870.063854

 energy correction for charged system         0.000000 eV
 dipol+quadrupol energy correction           -0.000000 eV
 added-field ion interaction          0.004210 eV  (added to PSCEN)


 Free energy of the ion-electron system (eV)
  ---------------------------------------------------
  alpha Z        PSCENC =        63.16527275
  Ewald energy   TEWEN  =     13060.57751853
  -Hartree energ DENC   =    -16288.10957048
  -exchange      EXHF   =         0.00000000
  -V(xc)+E(xc)   XCENC  =     -2051.07398443
  PAW double counting   =      5135.15659847    -2719.01140655
  entropy T*S    EENTRO =         0.00000000
  eigenvalues    EBANDS =     -1097.79074100
  atomic energy  EATOM  =      3827.98814510
  Solvation  Ediel_sol  =         0.00000000
  ---------------------------------------------------
  free energy    TOTEN  =       -69.09816760 eV

  energy without entropy =      -69.09816760  energy(sigma->0) =      -69.09816760


--------------------------------------------------------------------------------------------------------




--------------------------------------- Iteration      1(   8)  ---------------------------------------


    EDDIAG:  cpu time    2.7550: real time    2.7742
  RMM-DIIS:  cpu time    2.2120: real time    2.2123
    ORTHCH:  cpu time    1.0723: real time    1.0725
 BZINTS: Fermi energy: -1.452891;138.000000 electrons
         Band energy:***********;  BLOECHL correction: -0.074354
       DOS:  cpu time    0.0035: real time    0.0035
    --------------------------------------------
      LOOP:  cpu time    6.0428: real time    6.0625

 eigenvalue-minimisations  :   510
 total energy-change (2. order) :-0.8578960E+01  (-0.6667227E+01)
 number of electron     138.0000000 magnetization 
 augmentation part      138.0000000 magnetization 

 DIPCOR: dipole corrections for dipol
 direction  3 min pos   355,
 dipolmoment           0.000000      0.000000     -0.000396 electrons x Angstroem
 Tr[quadrupol]     -1870.063854

 energy correction for charged system         0.000000 eV
 dipol+quadrupol energy correction           -0.000000 eV
 added-field ion interaction          0.004210 eV  (added to PSCEN)


 Free energy of the ion-electron system (eV)
  ---------------------------------------------------
  alpha Z        PSCENC =        63.16527275
  Ewald energy   TEWEN  =     13060.57751853
  -Hartree energ DENC   =    -16288.10957048
  -exchange      EXHF   =         0.00000000
  -V(xc)+E(xc)   XCENC  =     -2051.07398443
  PAW double counting   =      5135.15659847    -2719.01140655
  entropy T*S    EENTRO =         0.00000000
  eigenvalues    EBANDS =     -1106.36970129
  atomic energy  EATOM  =      3827.98814510
  Solvation  Ediel_sol  =         0.00000000
  ---------------------------------------------------
  free energy    TOTEN  =       -77.67712789 eV

  energy without entropy =      -77.67712789  energy(sigma->0) =      -77.67712789


--------------------------------------------------------------------------------------------------------




--------------------------------------- Iteration      1(   9)  ---------------------------------------


    EDDIAG:  cpu time    2.7463: real time    2.7691
  RMM-DIIS:  cpu time    5.1416: real time    5.1423
    ORTHCH:  cpu time    1.0690: real time    1.0692
 BZINTS: Fermi energy: -1.490972;138.000000 electrons
         Band energy:***********;  BLOECHL correction: -0.072948
       DOS:  cpu time    0.0056: real time    0.0056
    --------------------------------------------
      LOOP:  cpu time    8.9625: real time    8.9861

 eigenvalue-minimisations  :  1481
 total energy-change (2. order) :-0.2502830E+01  (-0.2342011E+01)
 number of electron     138.0000000 magnetization 
 augmentation part      138.0000000 magnetization 

 DIPCOR: dipole corrections for dipol
 direction  3 min pos   355,
 dipolmoment           0.000000      0.000000     -0.000396 electrons x Angstroem
 Tr[quadrupol]     -1870.063854

 energy correction for charged system         0.000000 eV
 dipol+quadrupol energy correction           -0.000000 eV
 added-field ion interaction          0.004210 eV  (added to PSCEN)


 Free energy of the ion-electron system (eV)
  ---------------------------------------------------
  alpha Z        PSCENC =        63.16527275
  Ewald energy   TEWEN  =     13060.57751853
  -Hartree energ DENC   =    -16288.10957048
  -exchange      EXHF   =         0.00000000
  -V(xc)+E(xc)   XCENC  =     -2051.07398443
  PAW double counting   =      5135.15659847    -2719.01140655
  entropy T*S    EENTRO =         0.00000000
  eigenvalues    EBANDS =     -1108.87253102
  atomic energy  EATOM  =      3827.98814510
  Solvation  Ediel_sol  =         0.00000000
  ---------------------------------------------------
  free energy    TOTEN  =       -80.17995762 eV

  energy without entropy =      -80.17995762  energy(sigma->0) =      -80.17995762


--------------------------------------------------------------------------------------------------------




--------------------------------------- Iteration      1(  10)  ---------------------------------------


    EDDIAG:  cpu time    2.7467: real time    2.7649
  RMM-DIIS:  cpu time    6.0274: real time    6.0282
    ORTHCH:  cpu time    1.0723: real time    1.0724
 BZINTS: Fermi energy: -1.495377;138.000000 electrons
         Band energy:***********;  BLOECHL correction: -0.069943
       DOS:  cpu time    0.0064: real time    0.0064
    --------------------------------------------
      LOOP:  cpu time    9.8528: real time    9.8719

 eigenvalue-minimisations  :  1760
 total energy-change (2. order) :-0.3119703E+00  (-0.3288131E+00)
 number of electron     138.0000000 magnetization 
 augmentation part      138.0000000 magnetization 

 DIPCOR: dipole corrections for dipol
 direction  3 min pos   355,
 dipolmoment           0.000000      0.000000     -0.000396 electrons x Angstroem
 Tr[quadrupol]     -1870.063854

 energy correction for charged system         0.000000 eV
 dipol+quadrupol energy correction           -0.000000 eV
 added-field ion interaction          0.004210 eV  (added to PSCEN)


 Free energy of the ion-electron system (eV)
  ---------------------------------------------------
  alpha Z        PSCENC =        63.16527275
  Ewald energy   TEWEN  =     13060.57751853
  -Hartree energ DENC   =    -16288.10957048
  -exchange      EXHF   =         0.00000000
  -V(xc)+E(xc)   XCENC  =     -2051.07398443
  PAW double counting   =      5135.15659847    -2719.01140655
  entropy T*S    EENTRO =         0.00000000
  eigenvalues    EBANDS =     -1109.18450134
  atomic energy  EATOM  =      3827.98814510
  Solvation  Ediel_sol  =         0.00000000
  ---------------------------------------------------
  free energy    TOTEN  =       -80.49192794 eV

  energy without entropy =      -80.49192794  energy(sigma->0) =      -80.49192794


--------------------------------------------------------------------------------------------------------




--------------------------------------- Iteration      1(  11)  ---------------------------------------


    EDDIAG:  cpu time    2.7538: real time    2.7767
  RMM-DIIS:  cpu time    5.9530: real time    5.9537
    ORTHCH:  cpu time    1.0680: real time    1.0681
 BZINTS: Fermi energy: -1.496025;138.000000 electrons
         Band energy:***********;  BLOECHL correction: -0.069597
       DOS:  cpu time    0.0064: real time    0.0064
    --------------------------------------------
      LOOP:  cpu time    9.7810: real time    9.8048

 eigenvalue-minimisations  :  1719
 total energy-change (2. order) : 0.1730947E-02  (-0.1618994E-01)
 number of electron     138.0000000 magnetization 
 augmentation part      138.0000000 magnetization 

 DIPCOR: dipole corrections for dipol
 direction  3 min pos   355,
 dipolmoment           0.000000      0.000000     -0.000396 electrons x Angstroem
 Tr[quadrupol]     -1870.063854

 energy correction for charged system         0.000000 eV
 dipol+quadrupol energy correction           -0.000000 eV
 added-field ion interaction          0.004210 eV  (added to PSCEN)


 Free energy of the ion-electron system (eV)
  ---------------------------------------------------
  alpha Z        PSCENC =        63.16527275
  Ewald energy   TEWEN  =     13060.57751853
  -Hartree energ DENC   =    -16288.10957048
  -exchange      EXHF   =         0.00000000
  -V(xc)+E(xc)   XCENC  =     -2051.07398443
  PAW double counting   =      5135.15659847    -2719.01140655
  entropy T*S    EENTRO =         0.00000000
  eigenvalues    EBANDS =     -1109.18277039
  atomic energy  EATOM  =      3827.98814510
  Solvation  Ediel_sol  =         0.00000000
  ---------------------------------------------------
  free energy    TOTEN  =       -80.49019699 eV

  energy without entropy =      -80.49019699  energy(sigma->0) =      -80.49019699


--------------------------------------------------------------------------------------------------------




--------------------------------------- Iteration      1(  12)  ---------------------------------------


    EDDIAG:  cpu time    2.7563: real time    2.7738
  RMM-DIIS:  cpu time    6.1390: real time    6.1398
    ORTHCH:  cpu time    1.0727: real time    1.0729
 BZINTS: Fermi energy: -1.496104;138.000000 electrons
         Band energy:***********;  BLOECHL correction: -0.069567
       DOS:  cpu time    0.0036: real time    0.0036
    CHARGE:  cpu time    0.5055: real time    0.5056
    MIXING:  cpu time    0.0044: real time    0.0044
    --------------------------------------------
      LOOP:  cpu time   10.4816: real time   10.5001

 eigenvalue-minimisations  :  1783
 total energy-change (2. order) :-0.2444350E-02  (-0.3275913E-02)
 number of electron     138.0000002 magnetization 
 augmentation part        5.2746293 magnetization 

 DIPCOR: dipole corrections for dipol
 direction  3 min pos   355,
 dipolmoment           0.000000      0.000000     -0.000396 electrons x Angstroem
 Tr[quadrupol]     -1870.063854

 energy correction for charged system         0.000000 eV
 dipol+quadrupol energy correction           -0.000000 eV
 added-field ion interaction          0.004210 eV  (added to PSCEN)


 Broyden mixing:
  rms(total) = 0.20322E+01    rms(broyden)= 0.20311E+01
  rms(prec ) = 0.21264E+01
  weight for this iteration     100.00

 Free energy of the ion-electron system (eV)
  ---------------------------------------------------
  alpha Z        PSCENC =        63.16527275
  Ewald energy   TEWEN  =     13060.57751853
  -Hartree energ DENC   =    -16288.10957048
  -exchange      EXHF   =         0.00000000
  -V(xc)+E(xc)   XCENC  =     -2051.07398443
  PAW double counting   =      5135.15659847    -2719.01140655
  entropy T*S    EENTRO =         0.00000000
  eigenvalues    EBANDS =     -1109.18521474
  atomic energy  EATOM  =      3827.98814510
  Solvation  Ediel_sol  =         0.00000000
  ---------------------------------------------------
  free energy    TOTEN  =       -80.49264134 eV

  energy without entropy =      -80.49264134  energy(sigma->0) =      -80.49264134


--------------------------------------------------------------------------------------------------------




--------------------------------------- Iteration      1(  13)  ---------------------------------------


    POTLOK:  cpu time    9.7833: real time    9.8092
    SETDIJ:  cpu time    0.1354: real time    0.1356
    EDDIAG:  cpu time    2.7285: real time    2.7290
  RMM-DIIS:  cpu time    4.9068: real time    4.9074
    ORTHCH:  cpu time    1.0705: real time    1.0706
 BZINTS: Fermi energy: -1.165932;138.000000 electrons
         Band energy:-917.032647;  BLOECHL correction: -0.118981
       DOS:  cpu time    0.0060: real time    0.0060
    CHARGE:  cpu time    0.5023: real time    0.5023
    MIXING:  cpu time    0.0048: real time    0.0048
    --------------------------------------------
      LOOP:  cpu time   19.1374: real time   19.1650

 eigenvalue-minimisations  :  1385
 total energy-change (2. order) : 0.9691103E+01  (-0.6413608E+01)
 number of electron     138.0000002 magnetization 
 augmentation part        4.4684465 magnetization 

 DIPCOR: dipole corrections for dipol
 direction  3 min pos   359,
 dipolmoment           0.000000      0.000000      0.645080 electrons x Angstroem
 Tr[quadrupol]     -1881.573090

 energy correction for charged system         0.000000 eV
 dipol+quadrupol energy correction           -0.014593 eV
 added-field ion interaction         -5.236231 eV  (added to PSCEN)


 Broyden mixing:
  rms(total) = 0.80631E+00    rms(broyden)= 0.80577E+00
  rms(prec ) = 0.10999E+01
  weight for this iteration     100.00

 eigenvalues of (default mixing * dielectric matrix)
  average eigenvalue GAMMA=   0.9317
  0.9317

 Free energy of the ion-electron system (eV)
  ---------------------------------------------------
  alpha Z        PSCENC =        57.91023912
  Ewald energy   TEWEN  =     13060.57751853
  -Hartree energ DENC   =    -16472.71821598
  -exchange      EXHF   =         0.00000000
  -V(xc)+E(xc)   XCENC  =     -2041.06566062
  PAW double counting   =      5560.82156517    -3147.28248248
  entropy T*S    EENTRO =         0.00000000
  eigenvalues    EBANDS =      -917.03264722
  atomic energy  EATOM  =      3827.98814510
  Solvation  Ediel_sol  =         0.00000000
  ---------------------------------------------------
  free energy    TOTEN  =       -70.80153837 eV

  energy without entropy =      -70.80153837  energy(sigma->0) =      -70.80153837


--------------------------------------------------------------------------------------------------------




--------------------------------------- Iteration      1(  14)  ---------------------------------------


    POTLOK:  cpu time    9.7726: real time    9.7985
    SETDIJ:  cpu time    0.1354: real time    0.1355
    EDDIAG:  cpu time    2.7804: real time    2.7809
  RMM-DIIS:  cpu time    5.4752: real time    5.4759
    ORTHCH:  cpu time    1.0633: real time    1.0634
 BZINTS: Fermi energy: -0.911236;138.000000 electrons
         Band energy:***********;  BLOECHL correction:  0.000000
       DOS:  cpu time    0.0054: real time    0.0054
    CHARGE:  cpu time    0.4987: real time    0.4988
    MIXING:  cpu time    0.0044: real time    0.0044
    --------------------------------------------
      LOOP:  cpu time   19.7353: real time   19.7626

 eigenvalue-minimisations  :  1580
 total energy-change (2. order) :-0.3201393E+02  (-0.2094649E+01)
 number of electron     138.0000002 magnetization 
 augmentation part        4.4742849 magnetization 

 DIPCOR: dipole corrections for dipol
 direction  3 min pos   374,
 dipolmoment           0.000000      0.000000     -2.282003 electrons x Angstroem
 Tr[quadrupol]     -1866.227788

 energy correction for charged system         0.000000 eV
 dipol+quadrupol energy correction           -0.182621 eV
 added-field ion interaction         -3.094821 eV  (added to PSCEN)


 Broyden mixing:
  rms(total) = 0.11528E+01    rms(broyden)= 0.11528E+01
  rms(prec ) = 0.34496E+01
  weight for this iteration     100.00

 eigenvalues of (default mixing * dielectric matrix)
  average eigenvalue GAMMA=   0.6989
  0.9631  0.4346

 Free energy of the ion-electron system (eV)
  ---------------------------------------------------
  alpha Z        PSCENC =        59.88362131
  Ewald energy   TEWEN  =     13060.57751853
  -Hartree energ DENC   =    -16409.59259042
  -exchange      EXHF   =         0.00000000
  -V(xc)+E(xc)   XCENC  =     -2039.28435656
  PAW double counting   =      5706.17176599    -3292.63921222
  entropy T*S    EENTRO =         0.00000000
  eigenvalues    EBANDS =     -1015.92036394
  atomic energy  EATOM  =      3827.98814510
  Solvation  Ediel_sol  =         0.00000000
  ---------------------------------------------------
  free energy    TOTEN  =      -102.81547221 eV

  energy without entropy =     -102.81547221  energy(sigma->0) =     -102.81547221


--------------------------------------------------------------------------------------------------------




--------------------------------------- Iteration      1(  15)  ---------------------------------------


    POTLOK:  cpu time    9.7963: real time    9.8219
    SETDIJ:  cpu time    0.1369: real time    0.1369
    EDDIAG:  cpu time    2.7395: real time    2.7402
  RMM-DIIS:  cpu time    5.2289: real time    5.2296
    ORTHCH:  cpu time    1.0637: real time    1.0638
 BZINTS: Fermi energy: -1.229866;138.000000 electrons
         Band energy:-919.534552;  BLOECHL correction: -0.090081
       DOS:  cpu time    0.0071: real time    0.0071
    CHARGE:  cpu time    0.5089: real time    0.5090
    MIXING:  cpu time    0.0052: real time    0.0052
    --------------------------------------------
      LOOP:  cpu time   19.4865: real time   19.5138

 eigenvalue-minimisations  :  1479
 total energy-change (2. order) : 0.3401510E+02  (-0.4493189E+00)
 number of electron     138.0000002 magnetization 
 augmentation part        4.3862983 magnetization 

 DIPCOR: dipole corrections for dipol
 direction  3 min pos   384,
 dipolmoment           0.000000      0.000000      0.076136 electrons x Angstroem
 Tr[quadrupol]     -1878.880141

 energy correction for charged system         0.000000 eV
 dipol+quadrupol energy correction           -0.000203 eV
 added-field ion interaction          0.584101 eV  (added to PSCEN)


 Broyden mixing:
  rms(total) = 0.49425E+00    rms(broyden)= 0.49421E+00
  rms(prec ) = 0.53649E+00
  weight for this iteration     100.00

 eigenvalues of (default mixing * dielectric matrix)
  average eigenvalue GAMMA=   1.0656
  1.8641  1.1814  0.1514

 Free energy of the ion-electron system (eV)
  ---------------------------------------------------
  alpha Z        PSCENC =        63.74496061
  Ewald energy   TEWEN  =     13060.57751853
  -Hartree energ DENC   =    -16476.39279287
  -exchange      EXHF   =         0.00000000
  -V(xc)+E(xc)   XCENC  =     -2038.72551943
  PAW double counting   =      5750.79403185    -3337.25216507
  entropy T*S    EENTRO =         0.00000000
  eigenvalues    EBANDS =      -919.53455226
  atomic energy  EATOM  =      3827.98814510
  Solvation  Ediel_sol  =         0.00000000
  ---------------------------------------------------
  free energy    TOTEN  =       -68.80037353 eV

  energy without entropy =      -68.80037353  energy(sigma->0) =      -68.80037353


--------------------------------------------------------------------------------------------------------




--------------------------------------- Iteration      1(  16)  ---------------------------------------


    POTLOK:  cpu time    9.7872: real time    9.8123
    SETDIJ:  cpu time    0.1355: real time    0.1355
    EDDIAG:  cpu time    2.7411: real time    2.7416
  RMM-DIIS:  cpu time    5.4932: real time    5.4939
    ORTHCH:  cpu time    1.0677: real time    1.0678
 BZINTS: Fermi energy: -0.941175;138.000000 electrons
         Band energy:-897.821339;  BLOECHL correction: -0.069443
       DOS:  cpu time    0.0066: real time    0.0066
    CHARGE:  cpu time    0.5039: real time    0.5040
    MIXING:  cpu time    0.0046: real time    0.0046
    --------------------------------------------
      LOOP:  cpu time   19.7398: real time   19.7663

 eigenvalue-minimisations  :  1579
 total energy-change (2. order) : 0.2947970E-01  (-0.1418386E+00)
 number of electron     138.0000002 magnetization 
 augmentation part        4.4360155 magnetization 

 DIPCOR: dipole corrections for dipol
 direction  3 min pos   367,
 dipolmoment           0.000000      0.000000      0.120772 electrons x Angstroem
 Tr[quadrupol]     -1884.541726

 energy correction for charged system         0.000000 eV
 dipol+quadrupol energy correction           -0.000512 eV
 added-field ion interaction         -0.370133 eV  (added to PSCEN)


 Broyden mixing:
  rms(total) = 0.26420E+00    rms(broyden)= 0.26419E+00
  rms(prec ) = 0.41240E+00
  weight for this iteration     100.00

 eigenvalues of (default mixing * dielectric matrix)
  average eigenvalue GAMMA=   1.0487
  2.3862  0.9906  0.6619  0.1560

 Free energy of the ion-electron system (eV)
  ---------------------------------------------------
  alpha Z        PSCENC =        62.79041883
  Ewald energy   TEWEN  =     13060.57751853
  -Hartree energ DENC   =    -16498.46571454
  -exchange      EXHF   =         0.00000000
  -V(xc)+E(xc)   XCENC  =     -2037.53802131
  PAW double counting   =      5854.08796684    -3440.38986813
  entropy T*S    EENTRO =         0.00000000
  eigenvalues    EBANDS =      -897.82133916
  atomic energy  EATOM  =      3827.98814510
  Solvation  Ediel_sol  =         0.00000000
  ---------------------------------------------------
  free energy    TOTEN  =       -68.77089384 eV

  energy without entropy =      -68.77089384  energy(sigma->0) =      -68.77089384


--------------------------------------------------------------------------------------------------------




--------------------------------------- Iteration      1(  17)  ---------------------------------------


    POTLOK:  cpu time    9.8119: real time    9.8357
    SETDIJ:  cpu time    0.1361: real time    0.1362
    EDDIAG:  cpu time    2.7452: real time    2.7458
  RMM-DIIS:  cpu time    4.8006: real time    4.8012
    ORTHCH:  cpu time    1.0685: real time    1.0686
 BZINTS: Fermi energy: -0.889325;138.000000 electrons
         Band energy:-891.602835;  BLOECHL correction: -0.094320
       DOS:  cpu time    0.0066: real time    0.0066
    CHARGE:  cpu time    0.5070: real time    0.5070
    MIXING:  cpu time    0.0052: real time    0.0052
    --------------------------------------------
      LOOP:  cpu time   19.0811: real time   19.1063

 eigenvalue-minimisations  :  1361
 total energy-change (2. order) : 0.3218866E+00  (-0.4579717E-01)
 number of electron     138.0000002 magnetization 
 augmentation part        4.4522159 magnetization 

 DIPCOR: dipole corrections for dipol
 direction  3 min pos   378,
 dipolmoment           0.000000      0.000000     -0.267074 electrons x Angstroem
 Tr[quadrupol]     -1883.399201

 energy correction for charged system         0.000000 eV
[...]
  0.013  -0.001  -0.001   0.055   0.000   0.000  -0.003  -0.000  -0.000   0.000   0.011  -0.000   0.000
  0.000   0.000  -0.002   0.000   0.075   0.000  -0.000  -0.004  -0.003  -0.000  -0.000   0.004   0.000
  0.000   0.000  -0.004   0.000   0.000   0.000  -0.000  -0.000  -0.000  -0.000   0.000   0.000   0.000
 -0.003   0.000   0.000  -0.003  -0.000  -0.000   0.000   0.000   0.000  -0.000  -0.001   0.000  -0.000
 -0.000  -0.000   0.000  -0.000  -0.004  -0.000   0.000   0.000   0.000   0.000   0.000  -0.000  -0.000
  0.001   0.000   0.000  -0.000  -0.003  -0.000   0.000   0.000   0.003  -0.000   0.000  -0.000  -0.000
  0.000   0.000   0.004   0.000  -0.000  -0.000  -0.000   0.000  -0.000   0.002   0.000   0.000  -0.000
 -0.022   0.000  -0.000   0.011  -0.000   0.000  -0.001   0.000   0.000   0.000   0.004  -0.000  -0.000
  0.000   0.000  -0.000  -0.000   0.004   0.000   0.000  -0.000  -0.000   0.000  -0.000   0.002   0.000
 -0.001  -0.000  -0.002   0.000   0.000   0.000  -0.000  -0.000  -0.000  -0.000  -0.000   0.000   0.003


------------------------ aborting loop because EDIFF is reached ----------------------------------------


    CHARGE:  cpu time    0.5065: real time    0.5066
    FORLOC:  cpu time    0.0416: real time    0.0416
    FORNL :  cpu time    1.8541: real time    1.8544
    STRESS:  cpu time    5.5928: real time    5.5935
    FORCOR:  cpu time    9.7302: real time    9.7319
    FORHAR:  cpu time    0.2999: real time    0.2999
    MIXING:  cpu time    0.0086: real time    0.0086
    OFIELD:  cpu time    0.0000: real time    0.0000

  FORCE on cell =-STRESS in cart. coord.  units (eV):
  Direction    XX          YY          ZZ          XY          YZ          ZX
  --------------------------------------------------------------------------------------
  Alpha Z    63.16106    63.16106    63.16106
  Ewald   14564.20142 14508.58642-16012.22017  -331.99802    95.07192   111.86062
  Hartree 15509.80329 15447.03503-14420.56489  -208.91236    17.89180    42.70905
  E(xc)    -445.85037  -445.60159  -444.41416    -0.54189     0.45617     0.47673
  Local  -31046.67533-30919.57888 29479.63343   520.65722   -84.95485  -128.34952
  n-local   119.22593   119.43128   112.77436    -0.24176     0.44696     0.47437
  augment    45.33693    44.64369    44.71181     1.24685    -1.82414    -1.80408
  Kinetic  1183.96457  1173.21038  1176.93298    20.09446   -26.46162   -24.64041
  Fock        0.00000     0.00000     0.00000     0.00000     0.00000     0.00000
  -------------------------------------------------------------------------------------
  Total      -6.83248    -9.11260     0.01442     0.30449     0.62624     0.72677
  in kB      -4.24304    -5.65901     0.00896     0.18909     0.38890     0.45133
  external pressure =       -3.30 kB  Pullay stress =        0.00 kB


 VOLUME and BASIS-vectors are now :
 -----------------------------------------------------------------------------
  energy-cutoff  :      520.00
  volume of cell :     2579.96
      direct lattice vectors                 reciprocal lattice vectors
     9.555752754  0.000000000  0.000000000     0.104649003  0.060419130  0.000000000
    -4.777876377  8.275524637  0.000000000     0.000000000  0.120838260  0.000000000
     0.000000000  0.000000000 32.625095367     0.000000000  0.000000000  0.030651251

  length of vectors
     9.555752754  9.555752754 32.625095367     0.120838260  0.120838260  0.030651251


 FORCES acting on ions
    electron-ion (+dipol)            ewald-force                    non-local-force                 convergence-correction
 -----------------------------------------------------------------------------------------------
   0.350E-01 -.629E-01 0.122E+03   -.746E-02 -.528E-02 -.122E+03   -.110E-01 0.501E-01 -.788E+00   0.541E-05 -.814E-05 -.322E-03
   0.279E+00 -.118E+00 0.568E+02   -.228E+00 0.176E-01 -.568E+02   -.386E-01 0.799E-01 0.703E-01   0.262E-04 -.763E-05 -.173E-02
   -.527E+00 0.199E+00 0.295E+01   0.635E+00 -.141E+00 -.348E+01   -.889E-01 -.610E-01 0.543E+00   -.260E-05 -.308E-06 -.474E-03
   -.120E-01 -.302E-01 0.122E+03   0.192E-04 0.288E-02 -.122E+03   -.239E-01 0.734E-02 -.868E+00   -.124E-04 0.537E-05 -.330E-03
   -.523E-01 -.533E-01 0.567E+02   0.618E-01 0.433E-01 -.569E+02   -.248E-02 0.870E-02 0.117E+00   -.366E-05 0.623E-05 -.174E-02
   -.286E+01 -.292E+01 -.780E+01   0.293E+01 0.291E+01 0.754E+01   -.958E-01 -.719E-02 0.282E+00   -.162E-05 0.678E-05 -.743E-03
   0.176E-01 0.539E-01 0.122E+03   -.102E-01 -.773E-02 -.122E+03   0.390E-02 -.134E-01 -.861E+00   -.853E-06 -.183E-05 -.328E-03
   0.108E+00 0.286E+00 0.568E+02   -.109E+00 -.209E+00 -.569E+02   -.316E-02 -.517E-01 0.136E+00   0.291E-05 0.161E-04 -.174E-02
   -.251E+01 0.636E+00 -.139E+02   0.262E+01 -.484E+00 0.132E+02   -.946E-01 -.110E+00 0.706E+00   -.793E-06 -.584E-05 -.697E-03
   -.481E-01 -.416E-01 0.123E+03   0.182E-02 0.350E-02 -.122E+03   0.231E-01 0.149E-01 -.895E+00   -.491E-05 -.858E-05 -.329E-03
   -.498E-01 -.114E+00 0.570E+02   0.370E-01 0.414E-01 -.571E+02   0.130E-02 0.556E-01 0.110E+00   -.194E-04 -.691E-05 -.173E-02
   -.128E+01 0.937E+00 -.426E+01   0.995E+00 -.101E+01 0.381E+01   0.230E+00 0.553E-01 0.460E+00   0.309E-05 -.665E-05 -.769E-03
   0.275E-01 0.459E-02 0.122E+03   0.480E-02 0.154E-01 -.122E+03   -.324E-01 -.216E-01 -.832E+00   0.442E-05 0.630E-05 -.327E-03
   0.114E+00 -.220E+00 0.569E+02   -.110E+00 0.154E+00 -.569E+02   0.550E-03 0.528E-01 0.139E-01   0.635E-05 -.712E-05 -.176E-02
   0.551E+01 0.541E+01 -.127E+02   -.575E+01 -.563E+01 0.121E+02   0.268E+00 0.201E+00 0.599E+00   0.623E-06 -.914E-05 -.654E-03
   -.454E-01 0.211E-01 0.122E+03   0.134E-01 -.727E-02 -.122E+03   0.170E-01 -.972E-02 -.786E+00   -.879E-05 -.296E-05 -.330E-03
   -.191E+00 0.190E+00 0.569E+02   0.152E+00 -.144E+00 -.569E+02   0.253E-01 -.221E-01 -.177E-01   -.151E-04 -.199E-05 -.176E-02
   0.102E+01 0.207E+01 -.309E+01   -.970E+00 -.224E+01 0.284E+01   -.512E-01 0.187E+00 0.293E+00   -.139E-04 0.109E-04 -.416E-03
   0.478E-02 0.655E-01 0.122E+03   0.561E-02 -.660E-02 -.122E+03   -.913E-02 -.963E-02 -.872E+00   -.742E-07 0.987E-05 -.328E-03
   -.231E+00 0.175E+00 0.568E+02   0.203E+00 -.152E+00 -.570E+02   0.251E-01 -.314E-01 0.169E+00   -.560E-05 0.953E-05 -.174E-02
   0.106E+01 0.261E+01 -.135E+02   -.950E+00 -.264E+01 0.133E+02   -.921E-01 0.469E-01 0.235E+00   -.667E-05 -.512E-05 -.692E-03
   0.106E+00 -.434E-01 0.122E+03   -.484E-02 0.119E-01 -.122E+03   -.626E-01 0.109E-01 -.834E+00   0.817E-05 0.926E-05 -.334E-03
   -.177E-01 -.187E+00 0.568E+02   0.359E-01 0.196E+00 -.569E+02   -.142E-01 0.101E-03 0.117E+00   -.230E-05 0.174E-05 -.175E-02
   -.608E+01 0.526E+01 0.111E+02   0.634E+01 -.560E+01 -.115E+02   -.237E+00 0.317E+00 0.417E+00   -.270E-05 0.873E-05 -.534E-03
   -.425E-01 -.273E-01 0.122E+03   -.328E-02 -.666E-02 -.122E+03   0.425E-01 0.386E-01 -.796E+00   0.899E-05 -.920E-05 -.328E-03
   0.377E-01 -.214E-01 0.565E+02   -.307E-01 0.590E-01 -.565E+02   0.417E-02 -.280E-01 0.104E-01   0.114E-04 -.101E-04 -.177E-02
   0.218E+01 -.146E+02 0.156E+02   -.177E+01 0.146E+02 -.141E+02   -.524E+00 -.991E-01 -.124E+01   0.128E-04 -.158E-05 -.572E-03
   -.352E-01 -.430E-02 0.900E+02   0.185E-01 0.840E-02 -.900E+02   0.180E-01 -.382E-01 -.619E-03   0.107E-04 0.167E-05 -.138E-02
   0.143E+00 0.379E+00 0.235E+02   -.215E+00 -.333E+00 -.237E+02   0.731E-01 -.687E-01 0.186E+00   0.313E-05 -.206E-04 -.153E-02
   -.292E-01 0.290E-02 0.900E+02   0.505E-01 -.429E-02 -.900E+02   0.113E-01 0.136E-01 -.707E-02   -.366E-05 0.985E-05 -.138E-02
   -.635E+00 -.141E+00 0.233E+02   0.549E+00 0.174E+00 -.235E+02   0.101E+00 -.995E-02 0.170E+00   -.207E-04 0.825E-05 -.153E-02
   0.327E-01 0.259E-01 0.900E+02   -.835E-01 -.259E-01 -.900E+02   0.648E-02 0.445E-02 -.708E-01   -.394E-05 -.953E-05 -.139E-02
   0.527E+00 -.114E+00 0.248E+02   -.469E+00 0.651E-01 -.248E+02   -.683E-01 0.523E-01 -.109E-01   0.323E-05 0.358E-05 -.156E-02
   -.944E-01 -.128E+00 0.900E+02   0.417E-01 0.143E+00 -.900E+02   0.576E-01 0.410E-02 -.144E-01   -.114E-04 0.711E-05 -.137E-02
   0.267E+00 0.374E+00 0.248E+02   -.291E+00 -.416E+00 -.250E+02   0.363E-01 0.531E-01 0.236E+00   -.523E-05 -.246E-04 -.153E-02
   -.778E-01 -.335E-01 0.899E+02   0.702E-01 0.569E-01 -.898E+02   0.149E-02 -.483E-02 -.632E-01   0.613E-05 -.460E-05 -.137E-02
   0.126E+01 -.637E+00 0.241E+02   -.117E+01 0.544E+00 -.242E+02   -.878E-01 0.105E+00 0.880E-02   -.896E-07 -.444E-05 -.153E-02
   -.776E-01 0.556E-01 0.901E+02   0.713E-01 -.930E-01 -.900E+02   0.617E-02 -.115E-01 -.490E-01   -.582E-05 -.916E-05 -.138E-02
   -.234E+00 0.802E+00 0.236E+02   0.264E+00 -.767E+00 -.238E+02   -.443E-01 -.682E-01 0.248E+00   -.230E-04 0.132E-04 -.153E-02
   0.642E-01 -.604E-01 0.900E+02   -.570E-01 0.563E-01 -.899E+02   -.822E-02 0.192E-01 -.746E-01   0.848E-06 0.447E-05 -.140E-02
   -.429E+00 0.146E+00 0.252E+02   0.472E+00 -.163E+00 -.252E+02   -.565E-01 0.313E-01 0.365E-01   0.334E-05 0.213E-05 -.155E-02
   0.145E+00 0.355E-01 0.899E+02   -.113E+00 -.335E-01 -.899E+02   -.352E-01 -.919E-02 0.472E-01   -.185E-05 0.120E-04 -.138E-02
   -.645E+00 -.427E+00 0.241E+02   0.681E+00 0.455E+00 -.243E+02   -.391E-01 -.492E-01 0.194E+00   0.207E-04 0.117E-04 -.149E-02
   0.467E-01 0.129E+00 0.899E+02   0.173E-01 -.125E+00 -.899E+02   -.654E-02 -.950E-02 0.118E-02   0.891E-05 -.119E-04 -.139E-02
   -.233E+00 -.426E+00 0.229E+02   0.195E+00 0.503E+00 -.232E+02   0.717E-01 -.860E-01 0.278E+00   0.202E-04 0.113E-04 -.150E-02
   0.188E+02 0.413E+02 -.264E+03   -.287E+02 -.646E+02 0.237E+03   0.995E+01 0.234E+02 0.267E+02   -.533E-04 -.996E-04 0.717E-03
   0.855E+01 0.146E+02 -.417E+03   -.197E+02 -.401E+02 0.448E+03   0.112E+02 0.255E+02 -.316E+02   -.838E-04 -.190E-03 0.146E-02
   0.746E+01 0.102E+02 -.420E+03   -.176E+02 -.337E+02 0.455E+03   0.102E+02 0.235E+02 -.350E+02   -.105E-03 -.199E-03 0.150E-02
   0.188E+02 0.580E+02 -.261E+03   -.384E+02 -.807E+02 0.245E+03   0.195E+02 0.227E+02 0.160E+02   -.752E-04 -.460E-04 0.462E-03
   0.355E+01 -.294E+02 -.246E+03   0.904E+01 0.876E+01 0.230E+03   -.120E+02 0.208E+02 0.168E+02   0.203E-03 -.280E-03 0.110E-03
   -.678E+01 0.590E+02 -.274E+03   -.577E+01 -.786E+02 0.244E+03   0.126E+02 0.196E+02 0.296E+02   -.189E-03 -.494E-04 0.542E-03
   0.381E+02 -.412E+02 -.897E+02   -.431E+02 0.464E+02 0.929E+02   0.503E+01 -.521E+01 -.313E+01   -.129E-04 -.231E-05 0.209E-03
   -.546E+02 0.184E+01 -.103E+03   0.616E+02 -.224E+01 0.107E+03   -.695E+01 0.396E+00 -.418E+01   -.191E-05 -.117E-04 0.230E-03
   -.395E+02 -.671E+02 -.655E+02   0.437E+02 0.740E+02 0.656E+02   -.414E+01 -.698E+01 -.140E+00   -.226E-04 -.447E-04 0.245E-03
   0.182E+02 0.988E+01 0.353E+02   -.201E+02 -.109E+02 -.423E+02   0.189E+01 0.999E+00 0.693E+01   0.164E-04 -.812E-05 0.159E-03
   -.365E+02 -.761E+02 -.537E+02   0.399E+02 0.834E+02 0.531E+02   -.343E+01 -.732E+01 0.617E+00   -.302E-04 -.553E-04 0.239E-03
   0.147E+02 0.218E+02 0.323E+02   -.162E+02 -.238E+02 -.392E+02   0.150E+01 0.208E+01 0.685E+01   0.580E-05 0.623E-05 0.171E-03
   0.207E+02 -.378E+02 -.678E+02   -.234E+02 0.430E+02 0.684E+02   0.264E+01 -.502E+01 -.757E+00   0.106E-04 -.214E-04 0.116E-03
   -.580E+02 0.975E+00 -.100E+03   0.647E+02 -.139E+01 0.105E+03   -.681E+01 0.441E+00 -.434E+01   0.813E-06 -.412E-05 0.193E-03
   0.344E+02 -.538E+02 -.110E+03   -.374E+02 0.589E+02 0.115E+03   0.325E+01 -.521E+01 -.523E+01   -.648E-05 0.252E-04 0.201E-03
   0.999E+01 0.565E+01 -.190E+02   -.102E+02 -.576E+01 0.192E+02   -.536E+00 -.793E-01 -.954E+00   0.673E-05 0.265E-05 -.101E-03
   0.253E+02 -.441E+02 -.794E+02   -.291E+02 0.503E+02 0.816E+02   0.382E+01 -.620E+01 -.225E+01   -.168E-04 -.271E-05 0.184E-03
   -.606E+02 0.211E+02 -.119E+03   0.666E+02 -.229E+02 0.124E+03   -.598E+01 0.189E+01 -.543E+01   -.253E-05 -.101E-04 0.251E-03
 -----------------------------------------------------------------------------------------------
   -.410E+02 -.106E+03 -.710E+01   -.568E-13 0.249E-13 -.121E-11   0.410E+02 0.106E+03 0.716E+01   -.366E-03 -.993E-03 -.435E-01
 
 
 POSITION                                       TOTAL-FORCE (eV/Angst)
 -----------------------------------------------------------------------------------
      0.00000      0.00000      0.00000         0.016455     -0.018119      0.009549
      4.77571      8.27178      5.15323         0.012105     -0.020401     -0.004376
      0.01655      0.03855     10.76979         0.019417     -0.003727      0.017272
     -1.59263      2.75851      0.00000        -0.035956     -0.019973     -0.029088
     -1.58376      2.75327      5.13759         0.006922     -0.001301     -0.007340
      7.91133      2.74257     10.10495        -0.026303     -0.022293      0.015922
     -3.18525      5.51702      0.00000         0.011224      0.032688     -0.035561
      6.36859      5.50538      5.13600        -0.004456      0.025113      0.005144
     -3.13492      5.55128     10.22267         0.019318      0.042299      0.012151
      3.18525      0.00000      0.00000        -0.023334     -0.023246     -0.030117
     -1.58697      8.27541      5.12115        -0.011537     -0.017260     -0.001634
     -1.63215      8.25188     10.06219        -0.051603     -0.013930      0.008797
      1.59263      2.75851      0.00000        -0.000261     -0.001666     -0.037152
      1.59444      2.75389      5.14820         0.003713     -0.013348     -0.018989
      1.51459      2.78125     10.28974         0.020893     -0.018290      0.008085
     -0.00000      5.51702      0.00000        -0.014986      0.004052     -0.018347
     -0.00022      5.51578      5.16313        -0.013470      0.024425     -0.004050
     -0.03729      5.46411     10.87094         0.000470      0.015218      0.042152
      6.37050      0.00000      0.00000         0.001185      0.049228     -0.030522
      1.60196      8.26267      5.13230        -0.003311     -0.007465     -0.005304
      1.60020      8.24394     10.20795         0.021582      0.018394      0.034176
      4.77788      2.75851      0.00000         0.038432     -0.020677     -0.008632
      4.77686      2.75963      5.17539         0.003936      0.008681      0.013419
      4.82125      2.60720     10.56750         0.017713     -0.019251      0.089945
      3.18525      5.51702      0.00000        -0.003328      0.004582     -0.041450
      3.20316      5.51480      5.18093         0.011055      0.009597     -0.009236
      3.22878      5.52210     10.52250        -0.121813     -0.085080      0.293927
      0.00000      1.83901      2.60418         0.001185     -0.034074      0.027539
      0.02400      1.80859      7.72022         0.001322     -0.022951      0.012262
     -1.59263      4.59751      2.60418         0.032501      0.012234      0.026997
     -1.54892      4.61577      7.69962         0.014392      0.022859      0.014602
     -3.18525      7.35602      2.60418        -0.044316      0.004477     -0.063394
     -3.19618      7.33516      7.63276        -0.010622      0.003081      0.044159
      3.18525      1.83901      2.60418         0.004829      0.019336      0.045300
      3.18926      1.87532      7.71731         0.012705      0.011096      0.009130
      1.59263      4.59751      2.60418        -0.006145      0.018615      0.027281
      1.60427      4.62109      7.72456         0.003852      0.011899     -0.039654
      0.00000      7.35602      2.60418        -0.000157     -0.049023      0.032751
      0.01746      7.32056      7.68212        -0.014768     -0.033318      0.004066
      6.37050      1.83901      2.60418        -0.001168      0.015008     -0.033174
      6.35408      1.81004      7.65251        -0.013600      0.014155      0.013034
      4.77788      4.59751      2.60418        -0.003338     -0.007217      0.071561
      4.77834      4.55290      7.82096        -0.002872     -0.021114      0.031461
      3.18525      7.35602      2.60418         0.057338     -0.004800      0.037504
      3.23423      7.33684      7.78546         0.034615     -0.008596      0.038734
      9.45148      0.11128     12.90614         0.005113      0.031769     -0.008097
     -1.97546      8.03845     13.43587         0.026920      0.005435      0.040274
      7.38835      2.05649     13.42323         0.035462     -0.013302      0.043434
      4.50728      2.71565     12.65436        -0.053364      0.041817     -0.004224
      3.38474      4.98858     12.42175         0.608280      0.138585      0.111800
     -0.42994      5.73118     12.96234         0.024746     -0.007894      0.003897
      8.84028      0.77493     13.31278        -0.007099      0.015398     -0.007025
      0.73061      0.08509     13.42448        -0.001236     -0.008929      0.002200
      3.30390      0.60931     13.43391         0.007089      0.008421     -0.006190
     -2.21931      7.92426     12.47143        -0.011122     -0.010385     -0.019531
      7.80388      2.94023     13.32575        -0.004434      0.003371     -0.000125
      7.19745      1.79893     12.47495        -0.016727     -0.003093     -0.006375
      4.04683      3.64764     12.78870        -0.016843      0.154081     -0.075221
      5.33491      2.68335     13.18256        -0.059056      0.022797     -0.007281
      2.98625      5.61443     13.05065         0.186767     -0.070867      0.122174
      1.58464      4.42338     11.36913        -0.733110     -0.193973     -0.745953
     -0.91203      6.54731     13.27360         0.007097     -0.006626     -0.008066
      0.26919      5.53049     13.61200         0.041702      0.013477     -0.004591
 -----------------------------------------------------------------------------------
    total drift:                                0.004593      0.001375      0.020214


--------------------------------------------------------------------------------------------------------



  FREE ENERGIE OF THE ION-ELECTRON SYSTEM (eV)
  ---------------------------------------------------
  free  energy   TOTEN  =       -68.39800541 eV

  energy  without entropy=      -68.39800541  energy(sigma->0) =      -68.39800541
 


--------------------------------------------------------------------------------------------------------


    POTLOK:  cpu time    9.9434: real time    9.9448


--------------------------------------------------------------------------------------------------------


 stress matrix after NEB project (eV)
     -6.83248      0.30449      0.72677
      0.30449     -9.11260      0.62624
      0.72677      0.62624      0.01442
  FORCES: max atom, RMS     1.063730    0.168217
  FORCE total and by dimension    1.335184    0.745953
  Stress total and by dimension   11.478184    9.112602
     LOOP+:  cpu time  507.7467: real time  509.2691
 vacuum level on the upper side and lower side of the slab         2.296         3.139
    4ORBIT:  cpu time    0.0000: real time    0.0000
 BZINTS: Fermi energy: -0.685245;138.000000 electrons
         Band energy:-864.515345;  BLOECHL correction: -0.095824

 total amount of memory used by VASP MPI-rank0    62223. kBytes
=======================================================================

   base      :      30000. kBytes
   nonlr-proj:       6320. kBytes
   fftplans  :       6459. kBytes
   grid      :      11407. kBytes
   one-center:         24. kBytes
   wavefun   :       8013. kBytes
 
  
  
 General timing and accounting informations for this job:
 ========================================================
  
                  Total CPU time used (sec):      564.607
                            User time (sec):      555.673
                          System time (sec):        8.934
                         Elapsed time (sec):      580.410
  
                   Maximum memory used (kb):      273788.
                   Average memory used (kb):           0.
  
                          Minor page faults:       234904
                          Major page faults:            0
                 Voluntary context switches:        49662
