 running on   72 total cores
 distrk:  each k-point on   72 cores,    1 groups
 distr:  one band on   24 cores,    3 groups
 using from now: INCAR     
 vasp.5.4.4.18Apr17-6-g9f103f2a35 (build Jun 08 2018 12:06:12) complex          
  
 POSCAR found type information on POSCAR  Mg O  H 
 POSCAR found :  3 types and      63 ions
 scaLAPACK will be used

 ----------------------------------------------------------------------------- 
|                                                                             |
|           W    W    AA    RRRRR   N    N  II  N    N   GGGG   !!!           |
|           W    W   A  A   R    R  NN   N  II  NN   N  G    G  !!!           |
|           W    W  A    A  R    R  N N  N  II  N N  N  G       !!!           |
|           W WW W  AAAAAA  RRRRR   N  N N  II  N  N N  G  GGG   !            |
|           WW  WW  A    A  R   R   N   NN  II  N   NN  G    G                |
|           W    W  A    A  R    R  N    N  II  N    N   GGGG   !!!           |
|                                                                             |
|      For optimal performance we recommend to set                            |
|        NCORE= 4 - approx SQRT( number of cores)                             |
|      NCORE specifies how many cores store one orbital (NPAR=cpu/NCORE).     |
|      This setting can  greatly improve the performance of VASP for DFT.     |
|      The default,   NCORE=1            might be grossly inefficient         |
|      on modern multi-core architectures or massively parallel machines.     |
|      Do your own testing !!!!                                               |
|      Unfortunately you need to use the default for GW and RPA calculations. |
|      (for HF NCORE is supported but not extensively tested yet)             |
|                                                                             |
 ----------------------------------------------------------------------------- 


 ----------------------------------------------------------------------------- 
|                                                                             |
|  ADVICE TO THIS USER RUNNING 'VASP/VAMP'   (HEAR YOUR MASTER'S VOICE ...):  |
|                                                                             |
|      You have switched on vdW-DFT.                                          |
|      This routine was written and supplied by Jiri Klimes.                  |
|      We recommed that you carefully read and cite the following             |
|      publication                                                            |
|      J. Klimes, D.R. Bowler, A. Michelides                                  |
|        J. Phys.: Cond Matt. 22 022201 (2010)                                |
|      J. Klimes, D.R. Bowler, A. Michelides                                  |
|        Phys. Rev. B. 83, 195131 (2011)                                      |
|      and references therein.                                                |
|                                                                             |
 ----------------------------------------------------------------------------- 


 ----------------------------------------------------------------------------- 
|                                                                             |
|  ADVICE TO THIS USER RUNNING 'VASP/VAMP'   (HEAR YOUR MASTER'S VOICE ...):  |
|                                                                             |
|      You enforced a specific xc-type in the INCAR file,                     |
|      a different type was found on the POTCAR file                          |
|          I HOPE YOU KNOW, WHAT YOU ARE  DOING                               |
|                                                                             |
 ----------------------------------------------------------------------------- 

 LDA part: xc-table for Pade appr. of Perdew
 POSCAR found type information on POSCAR  Mg O  H 
 POSCAR found :  3 types and      63 ions
 POSCAR, INCAR and KPOINTS ok, starting setup
 FFT: planning ...
 WAVECAR not read
 augmentation electrons   138.057281590936     
 soft         electrons  0.000000000000000E+000
 augmentation electrons   138.057281590936     
 augmentation electrons   138.057281590936     
 soft         electrons  0.000000000000000E+000
 augmentation electrons   138.057281590936     
 soft         electrons  0.000000000000000E+000
 augmentation electrons   138.057281590936     
 soft         electrons  0.000000000000000E+000
 augmentation electrons   138.057281590936     
 soft         electrons  0.000000000000000E+000
 augmentation electrons   138.057281590936     
 soft         electrons  0.000000000000000E+000
 augmentation electrons   138.057281590936     
 soft         electrons  0.000000000000000E+000
 augmentation electrons   138.057281590936     
 soft         electrons  0.000000000000000E+000
 augmentation electrons   138.057281590936     
 soft         electrons  0.000000000000000E+000
 augmentation electrons   138.057281590936     
 soft         electrons  0.000000000000000E+000
 augmentation electrons   138.057281590936     
 soft         electrons  0.000000000000000E+000
 augmentation electrons   138.057281590936     
 soft         electrons  0.000000000000000E+000
 augmentation electrons   138.057281590936     
 soft         electrons  0.000000000000000E+000
 augmentation electrons   138.057281590936     
 soft         electrons  0.000000000000000E+000
 augmentation electrons   138.057281590936     
 soft         electrons  0.000000000000000E+000
 augmentation electrons   138.057281590936     
 soft         electrons  0.000000000000000E+000
 augmentation electrons   138.057281590936     
 soft         electrons  0.000000000000000E+000
 augmentation electrons   138.057281590936     
 soft         electrons  0.000000000000000E+000
 augmentation electrons   138.057281590936     
 soft         electrons  0.000000000000000E+000
 augmentation electrons   138.057281590936     
 soft         electrons  0.000000000000000E+000
 augmentation electrons   138.057281590936     
 soft         electrons  0.000000000000000E+000
 augmentation electrons   138.057281590936     
 soft         electrons  0.000000000000000E+000
 augmentation electrons   138.057281590936     
 soft         electrons  0.000000000000000E+000
 augmentation electrons   138.057281590936     
 soft         electrons  0.000000000000000E+000
 augmentation electrons   138.057281590936     
 soft         electrons  0.000000000000000E+000
 augmentation electrons   138.057281590936     
 soft         electrons  0.000000000000000E+000
 augmentation electrons   138.057281590936     
 soft         electrons  0.000000000000000E+000
 augmentation electrons   138.057281590936     
 soft         electrons  0.000000000000000E+000
 augmentation electrons   138.057281590936     
 soft         electrons  0.000000000000000E+000
 augmentation electrons   138.057281590936     
 soft         electrons  0.000000000000000E+000
 augmentation electrons   138.057281590936     
 soft         electrons  0.000000000000000E+000
 augmentation electrons   138.057281590936     
 soft         electrons  0.000000000000000E+000
 augmentation electrons   138.057281590936     
 soft         electrons  0.000000000000000E+000
 augmentation electrons   138.057281590936     
 soft         electrons  0.000000000000000E+000
 augmentation electrons   138.057281590936     
 soft         electrons  0.000000000000000E+000
 augmentation electrons   138.057281590936     
 soft         electrons  0.000000000000000E+000
 augmentation electrons   138.057281590936     
 soft         electrons  0.000000000000000E+000
 augmentation electrons   138.057281590936     
 soft         electrons  0.000000000000000E+000
 augmentation electrons   138.057281590936     
 soft         electrons  0.000000000000000E+000
 augmentation electrons   138.057281590936     
 soft         electrons  0.000000000000000E+000
 augmentation electrons   138.057281590936     
 soft         electrons  0.000000000000000E+000
 augmentation electrons   138.057281590936     
 soft         electrons  0.000000000000000E+000
 total        electrons   138.057281590936     
 augmentation electrons   138.057281590936     
 soft         electrons  0.000000000000000E+000
 augmentation electrons   138.057281590936     
 soft         electrons  0.000000000000000E+000
 augmentation electrons   138.057281590936     
 soft         electrons  0.000000000000000E+000
 total        electrons   138.057281590936     
 augmentation electrons   138.057281590936     
 soft         electrons  0.000000000000000E+000
 augmentation electrons   138.057281590936     
 soft         electrons  0.000000000000000E+000
 augmentation electrons   138.057281590936     
 soft         electrons  0.000000000000000E+000
 total        electrons   138.057281590936     
 augmentation electrons   138.057281590936     
 soft         electrons  0.000000000000000E+000
 augmentation electrons   138.057281590936     
 soft         electrons  0.000000000000000E+000
 augmentation electrons   138.057281590936     
 soft         electrons  0.000000000000000E+000
 total        electrons   138.057281590936     
 augmentation electrons   138.057281590936     
 soft         electrons  0.000000000000000E+000
 augmentation electrons   138.057281590936     
 soft         electrons  0.000000000000000E+000
 augmentation electrons   138.057281590936     
 soft         electrons  0.000000000000000E+000
 total        electrons   138.057281590936     
 augmentation electrons   138.057281590936     
 soft         electrons  0.000000000000000E+000
 augmentation electrons   138.057281590936     
 soft         electrons  0.000000000000000E+000
 augmentation electrons   138.057281590936     
 soft         electrons  0.000000000000000E+000
 total        electrons   138.057281590936     
 augmentation electrons   138.057281590936     
 soft         electrons  0.000000000000000E+000
 augmentation electrons   138.057281590936     
 soft         electrons  0.000000000000000E+000
 total        electrons   138.057281590936     
 augmentation electrons   138.057281590936     
 soft         electrons  0.000000000000000E+000
 augmentation electrons   138.057281590936     
 total        electrons   138.057281590936     
 augmentation electrons   138.057281590936     
 soft         electrons  0.000000000000000E+000
 augmentation electrons   138.057281590936     
 soft         electrons  0.000000000000000E+000
 total        electrons   138.057281590936     
 augmentation electrons   138.057281590936     
 soft         electrons  0.000000000000000E+000
 augmentation electrons   138.057281590936     
 soft         electrons  0.000000000000000E+000
 total        electrons   138.057281590936     
 augmentation electrons   138.057281590936     
 soft         electrons  0.000000000000000E+000
 augmentation electrons   138.057281590936     
 soft         electrons  0.000000000000000E+000
 total        electrons   138.057281590936     
 augmentation electrons   138.057281590936     
 soft         electrons  0.000000000000000E+000
 soft         electrons  0.000000000000000E+000
 total        electrons   138.057281590936     
 augmentation electrons   138.057281590936     
 soft         electrons  0.000000000000000E+000
 total        electrons   138.057281590936     
 total        electrons   138.057281590936     
 augmentation electrons   138.057281590936     
 soft         electrons  0.000000000000000E+000
 total        electrons   138.057281590936     
 total        electrons   138.057281590936     
 augmentation electrons   138.057281590936     
 soft         electrons  0.000000000000000E+000
 total        electrons   138.057281590936     
 total        electrons   138.057281590936     
 soft         electrons  0.000000000000000E+000
 total        electrons   138.057281590936     
 total        electrons   138.057281590936     
 total        electrons   138.057281590936     
 total        electrons   138.057281590936     
 total        electrons   138.057281590936     
 total        electrons   138.057281590936     
 total        electrons   138.057281590936     
 total        electrons   138.057281590936     
 total        electrons   138.057281590936     
 total        electrons   138.057281590936     
 total        electrons   138.057281590936     
 total        electrons   138.057281590936     
 total        electrons   138.057281590936     
 total        electrons   138.057281590936     
 total        electrons   138.057281590936     
 total        electrons   138.057281590936     
 total        electrons   138.057281590936     
 total        electrons   138.057281590936     
 total        electrons   138.057281590936     
 total        electrons   138.057281590936     
 total        electrons   138.057281590936     
 total        electrons   138.057281590936     
 total        electrons   138.057281590936     
 total        electrons   138.057281590936     
 total        electrons   138.057281590936     
 total        electrons   138.057281590936     
 total        electrons   138.057281590936     
 total        electrons   138.057281590936     
 total        electrons   138.057281590936     
 total        electrons   138.057281590936     
 total        electrons   138.057281590936     
 total        electrons   138.057281590936     
 total        electrons   138.057281590936     
 total        electrons   138.057281590936     
 total        electrons   138.057281590936     
 total        electrons   138.057281590936     
 total        electrons   138.057281590936     
 total        electrons   138.057281590936     
 total        electrons   138.057281590936     
 total        electrons   138.057281590936     
 total        electrons   138.057281590936     
 total        electrons   138.057281590936     
 total        electrons   138.057281590936     
 total        electrons   138.057281590936     
 total        electrons   138.057281590936     
 total        electrons   138.057281590936     
 total        electrons   138.057281590936     
 total        electrons   138.057281590936     
 total        electrons   138.057281590936     
 total        electrons   138.057281590936     
 total        electrons   138.057281590936     
 total        electrons   138.057281590936     
 total        electrons   138.057281590936     
 total        electrons   138.057281590936     
 augmentation electrons   481.392473902788     
 soft         electrons  0.000000000000000E+000
 augmentation electrons   481.392473902788     
 augmentation electrons   481.392473902788     
 soft         electrons  0.000000000000000E+000
 augmentation electrons   481.392473902788     
 soft         electrons  0.000000000000000E+000
 augmentation electrons   481.392473902788     
 soft         electrons  0.000000000000000E+000
 augmentation electrons   481.392473902788     
 soft         electrons  0.000000000000000E+000
 augmentation electrons   481.392473902788     
 soft         electrons  0.000000000000000E+000
 augmentation electrons   481.392473902788     
 soft         electrons  0.000000000000000E+000
 augmentation electrons   481.392473902788     
 soft         electrons  0.000000000000000E+000
 augmentation electrons   481.392473902788     
 soft         electrons  0.000000000000000E+000
 augmentation electrons   481.392473902788     
 soft         electrons  0.000000000000000E+000
 augmentation electrons   481.392473902788     
 soft         electrons  0.000000000000000E+000
 augmentation electrons   481.392473902788     
 soft         electrons  0.000000000000000E+000
 augmentation electrons   481.392473902788     
 soft         electrons  0.000000000000000E+000
 augmentation electrons   481.392473902788     
 soft         electrons  0.000000000000000E+000
 augmentation electrons   481.392473902788     
 soft         electrons  0.000000000000000E+000
 augmentation electrons   481.392473902788     
 soft         electrons  0.000000000000000E+000
 augmentation electrons   481.392473902788     
 soft         electrons  0.000000000000000E+000
 augmentation electrons   481.392473902788     
 soft         electrons  0.000000000000000E+000
 augmentation electrons   481.392473902788     
 soft         electrons  0.000000000000000E+000
 augmentation electrons   481.392473902788     
 soft         electrons  0.000000000000000E+000
 augmentation electrons   481.392473902788     
 soft         electrons  0.000000000000000E+000
 augmentation electrons   481.392473902788     
 soft         electrons  0.000000000000000E+000
 augmentation electrons   481.392473902788     
 soft         electrons  0.000000000000000E+000
 augmentation electrons   481.392473902788     
 soft         electrons  0.000000000000000E+000
 augmentation electrons   481.392473902788     
 soft         electrons  0.000000000000000E+000
 augmentation electrons   481.392473902788     
 soft         electrons  0.000000000000000E+000
 augmentation electrons   481.392473902788     
 soft         electrons  0.000000000000000E+000
 augmentation electrons   481.392473902788     
 soft         electrons  0.000000000000000E+000
 augmentation electrons   481.392473902788     
 soft         electrons  0.000000000000000E+000
 augmentation electrons   481.392473902788     
 soft         electrons  0.000000000000000E+000
 augmentation electrons   481.392473902788     
 soft         electrons  0.000000000000000E+000
 augmentation electrons   481.392473902788     
 soft         electrons  0.000000000000000E+000
 augmentation electrons   481.392473902788     
 soft         electrons  0.000000000000000E+000
 augmentation electrons   481.392473902788     
 soft         electrons  0.000000000000000E+000
 augmentation electrons   481.392473902788     
 soft         electrons  0.000000000000000E+000
 augmentation electrons   481.392473902788     
 soft         electrons  0.000000000000000E+000
 augmentation electrons   481.392473902788     
 soft         electrons  0.000000000000000E+000
 augmentation electrons   481.392473902788     
 soft         electrons  0.000000000000000E+000
 augmentation electrons   481.392473902788     
 soft         electrons  0.000000000000000E+000
 total        electrons   481.392473902788     
 augmentation electrons   481.392473902788     
 soft         electrons  0.000000000000000E+000
 augmentation electrons   481.392473902788     
 soft         electrons  0.000000000000000E+000
 augmentation electrons   481.392473902788     
 soft         electrons  0.000000000000000E+000
 total        electrons   481.392473902788     
 augmentation electrons   481.392473902788     
 soft         electrons  0.000000000000000E+000
 augmentation electrons   481.392473902788     
 soft         electrons  0.000000000000000E+000
 augmentation electrons   481.392473902788     
 soft         electrons  0.000000000000000E+000
 total        electrons   481.392473902788     
 augmentation electrons   481.392473902788     
 soft         electrons  0.000000000000000E+000
 augmentation electrons   481.392473902788     
 soft         electrons  0.000000000000000E+000
 augmentation electrons   481.392473902788     
 soft         electrons  0.000000000000000E+000
 total        electrons   481.392473902788     
 augmentation electrons   481.392473902788     
 soft         electrons  0.000000000000000E+000
 augmentation electrons   481.392473902788     
 soft         electrons  0.000000000000000E+000
 augmentation electrons   481.392473902788     
 soft         electrons  0.000000000000000E+000
 total        electrons   481.392473902788     
 augmentation electrons   481.392473902788     
 soft         electrons  0.000000000000000E+000
 augmentation electrons   481.392473902788     
 soft         electrons  0.000000000000000E+000
 augmentation electrons   481.392473902788     
 soft         electrons  0.000000000000000E+000
 total        electrons   481.392473902788     
 augmentation electrons   481.392473902788     
 soft         electrons  0.000000000000000E+000
 augmentation electrons   481.392473902788     
 augmentation electrons   481.392473902788     
 soft         electrons  0.000000000000000E+000
 total        electrons   481.392473902788     
 augmentation electrons   481.392473902788     
 soft         electrons  0.000000000000000E+000
 augmentation electrons   481.392473902788     
 soft         electrons  0.000000000000000E+000
 total        electrons   481.392473902788     
 augmentation electrons   481.392473902788     
 soft         electrons  0.000000000000000E+000
 augmentation electrons   481.392473902788     
 soft         electrons  0.000000000000000E+000
 total        electrons   481.392473902788     
 augmentation electrons   481.392473902788     
 soft         electrons  0.000000000000000E+000
 augmentation electrons   481.392473902788     
 soft         electrons  0.000000000000000E+000
 total        electrons   481.392473902788     
 augmentation electrons   481.392473902788     
 soft         electrons  0.000000000000000E+000
 augmentation electrons   481.392473902788     
 soft         electrons  0.000000000000000E+000
 total        electrons   481.392473902788     
 augmentation electrons   481.392473902788     
 soft         electrons  0.000000000000000E+000
 augmentation electrons   481.392473902788     
 soft         electrons  0.000000000000000E+000
 total        electrons   481.392473902788     
 augmentation electrons   481.392473902788     
 soft         electrons  0.000000000000000E+000
 soft         electrons  0.000000000000000E+000
 total        electrons   481.392473902788     
 augmentation electrons   481.392473902788     
 soft         electrons  0.000000000000000E+000
 total        electrons   481.392473902788     
 total        electrons   481.392473902788     
 augmentation electrons   481.392473902788     
 soft         electrons  0.000000000000000E+000
 total        electrons   481.392473902788     
 total        electrons   481.392473902788     
 augmentation electrons   481.392473902788     
 soft         electrons  0.000000000000000E+000
 total        electrons   481.392473902788     
 total        electrons   481.392473902788     
 soft         electrons  0.000000000000000E+000
 total        electrons   481.392473902788     
 total        electrons   481.392473902788     
 total        electrons   481.392473902788     
 total        electrons   481.392473902788     
 total        electrons   481.392473902788     
 total        electrons   481.392473902788     
 total        electrons   481.392473902788     
 total        electrons   481.392473902788     
 total        electrons   481.392473902788     
 total        electrons   481.392473902788     
 total        electrons   481.392473902788     
 total        electrons   481.392473902788     
 total        electrons   481.392473902788     
 total        electrons   481.392473902788     
 total        electrons   481.392473902788     
 total        electrons   481.392473902788     
 total        electrons   481.392473902788     
 total        electrons   481.392473902788     
 total        electrons   481.392473902788     
 total        electrons   481.392473902788     
 total        electrons   481.392473902788     
 total        electrons   481.392473902788     
 total        electrons   481.392473902788     
 total        electrons   481.392473902788     
 total        electrons   481.392473902788     
 total        electrons   481.392473902788     
 total        electrons   481.392473902788     
 total        electrons   481.392473902788     
 total        electrons   481.392473902788     
 total        electrons   481.392473902788     
 total        electrons   481.392473902788     
 total        electrons   481.392473902788     
 total        electrons   481.392473902788     
 total        electrons   481.392473902788     
 total        electrons   481.392473902788     
 total        electrons   481.392473902788     
 total        electrons   481.392473902788     
 total        electrons   481.392473902788     
 total        electrons   481.392473902788     
 total        electrons   481.392473902788     
 total        electrons   481.392473902788     
 total        electrons   481.392473902788     
 total        electrons   481.392473902788     
 total        electrons   481.392473902788     
 total        electrons   481.392473902788     
 total        electrons   481.392473902788     
 total        electrons   481.392473902788     
 total        electrons   481.392473902788     
 total        electrons   481.392473902788     
 total        electrons   481.392473902788     
 total        electrons   481.392473902788     
 total        electrons   481.392473902788     
 total        electrons   481.392473902788     
 entering main loop
       N       E                     dE             d eps       ncg     rms          rms(c)
Total vdW correction in eV:     53.7061313
RMM:   1     0.123981977875E+04    0.12398E+04   -0.27925E+04   510   0.785E+02
RMM:   2     0.544972819764E+03   -0.69485E+03   -0.75413E+03   510   0.166E+02
RMM:   3     0.310143471264E+03   -0.23483E+03   -0.29858E+03   510   0.831E+01
RMM:   4     0.138716242561E+03   -0.17143E+03   -0.14829E+03   510   0.787E+01
RMM:   5     0.238351686966E+02   -0.11488E+03   -0.92107E+02   510   0.635E+01
RMM:   6    -0.410130567115E+02   -0.64848E+02   -0.48898E+02   510   0.464E+01
RMM:   7    -0.690981675982E+02   -0.28085E+02   -0.20966E+02   510   0.278E+01
RMM:   8    -0.776771278871E+02   -0.85790E+01   -0.66672E+01   510   0.148E+01
RMM:   9    -0.801799576193E+02   -0.25028E+01   -0.23420E+01  1481   0.805E+00
RMM:  10    -0.804919279394E+02   -0.31197E+00   -0.32881E+00  1760   0.295E+00
RMM:  11    -0.804901969924E+02    0.17309E-02   -0.16190E-01  1719   0.698E-01
RMM:  12    -0.804926413425E+02   -0.24444E-02   -0.32759E-02  1783   0.281E-01    0.203E+01
Total vdW correction in eV:     53.7802083
RMM:  13    -0.708015383699E+02    0.96911E+01   -0.64136E+01  1385   0.146E+01    0.806E+00
Total vdW correction in eV:     53.7415887
RMM:  14    -0.102815472208E+03   -0.32014E+02   -0.20946E+01  1580   0.408E+00    0.115E+01
Total vdW correction in eV:     53.7228170
RMM:  15    -0.688003735343E+02    0.34015E+02   -0.44932E+00  1479   0.183E+00    0.494E+00
Total vdW correction in eV:     53.6620450
RMM:  16    -0.687708938361E+02    0.29480E-01   -0.14184E+00  1579   0.196E+00    0.264E+00
Total vdW correction in eV:     53.6489791
RMM:  17    -0.684490072735E+02    0.32189E+00   -0.45797E-01  1361   0.140E+00    0.886E-01
Total vdW correction in eV:     53.6581991
RMM:  18    -0.684171424743E+02    0.31865E-01   -0.91440E-02  1565   0.581E-01    0.397E-01
Total vdW correction in eV:     53.6668636
RMM:  19    -0.684109385984E+02    0.62039E-02   -0.43291E-02  1368   0.388E-01    0.263E-01
Total vdW correction in eV:     53.6728023
RMM:  20    -0.684108612646E+02    0.77334E-04   -0.14407E-02  1481   0.239E-01    0.105E-01
Total vdW correction in eV:     53.6852052
RMM:  21    -0.684068355098E+02    0.40258E-02   -0.37199E-03  1446   0.107E-01    0.685E-02
Total vdW correction in eV:     53.6903926
RMM:  22    -0.684008916196E+02    0.59439E-02   -0.66186E-04  1503   0.406E-02    0.453E-02
Total vdW correction in eV:     53.6966851
RMM:  23    -0.683952431079E+02    0.56485E-02   -0.50154E-04  1200   0.474E-02    0.176E-02
Total vdW correction in eV:     53.7022470
RMM:  24    -0.683965952702E+02   -0.13522E-02   -0.33796E-04  1139   0.423E-02    0.132E-02
Total vdW correction in eV:     53.7052035
RMM:  25    -0.683980346959E+02   -0.14394E-02   -0.32626E-04  1092   0.411E-02    0.651E-03
Total vdW correction in eV:     53.7064169
RMM:  26    -0.683979683926E+02    0.66303E-04   -0.32364E-04  1067   0.296E-02    0.760E-03
Total vdW correction in eV:     53.7064711
RMM:  27    -0.683979188917E+02    0.49501E-04   -0.10131E-04  1036   0.164E-02    0.308E-03
Total vdW correction in eV:     53.7064244
RMM:  28    -0.683979019267E+02    0.16965E-04   -0.73322E-05   908   0.128E-02    0.179E-03
Total vdW correction in eV:     53.7063264
RMM:  29    -0.683979213180E+02   -0.19391E-04   -0.30473E-05   837   0.951E-03    0.221E-03
Total vdW correction in eV:     53.7062040
RMM:  30    -0.683979788598E+02   -0.57542E-04   -0.11870E-05   810   0.572E-03    0.303E-03
Total vdW correction in eV:     53.7061995
RMM:  31    -0.683980053870E+02   -0.26527E-04   -0.23300E-06   721   0.356E-03    0.220E-03
Total vdW correction in eV:     53.7061784
RMM:  32    -0.683980054112E+02   -0.24214E-07   -0.46974E-06   763   0.436E-03
Total vdW correction in eV:     53.7061140
Total vdW correction in eV:     53.7061702
   1 F= -.68398005E+02 E0= -.68398005E+02  d E =0.000000E+00
 augmentation electrons   4.45643070441405     
 soft         electrons   133.577779244226     
 augmentation electrons   4.45643070441405     
 soft         electrons   133.577779244226     
 augmentation electrons   4.45643070441405     
 soft         electrons   133.577779244226     
 augmentation electrons   4.45643070441405     
 soft         electrons   133.577779244226     
 augmentation electrons   4.45643070441405     
 soft         electrons   133.577779244226     
 augmentation electrons   4.45643070441405     
 soft         electrons   133.577779244226     
 augmentation electrons   4.45643070441405     
 soft         electrons   133.577779244226     
 augmentation electrons   4.45643070441405     
 soft         electrons   133.577779244226     
 augmentation electrons   4.45643070441405     
 soft         electrons   133.577779244226     
 augmentation electrons   4.45643070441405     
 soft         electrons   133.577779244226     
 augmentation electrons   4.45643070441405     
 soft         electrons   133.577779244226     
 augmentation electrons   4.45643070441405     
 soft         electrons   133.577779244226     
 augmentation electrons   4.45643070441405     
 soft         electrons   133.577779244226     
 augmentation electrons   4.45643070441405     
 soft         electrons   133.577779244226     
 augmentation electrons   4.45643070441405     
 soft         electrons   133.577779244226     
 augmentation electrons   4.45643070441405     
 soft         electrons   133.577779244226     
 augmentation electrons   4.45643070441405     
 soft         electrons   133.577779244226     
 augmentation electrons   4.45643070441405     
 soft         electrons   133.577779244226     
 augmentation electrons   4.45643070441405     
 soft         electrons   133.577779244226     
 augmentation electrons   4.45643070441405     
 soft         electrons   133.577779244226     
 augmentation electrons   4.45643070441405     
 soft         electrons   133.577779244226     
 augmentation electrons   4.45643070441405     
 soft         electrons   133.577779244226     
 augmentation electrons   4.45643070441405     
 soft         electrons   133.577779244226     
 augmentation electrons   4.45643070441405     
 soft         electrons   133.577779244226     
 augmentation electrons   4.45643070441405     
 soft         electrons   133.577779244226     
 augmentation electrons   4.45643070441405     
 soft         electrons   133.577779244226     
 augmentation electrons   4.45643070441405     
 soft         electrons   133.577779244226     
 augmentation electrons   4.45643070441405     
 soft         electrons   133.577779244226     
 augmentation electrons   4.45643070441405     
 soft         electrons   133.577779244226     
 augmentation electrons   4.45643070441405     
 soft         electrons   133.577779244226     
 augmentation electrons   4.45643070441405     
 soft         electrons   133.577779244226     
 total        electrons   138.034209948640     
 augmentation electrons   4.45643070441405     
 soft         electrons   133.577779244226     
 augmentation electrons   4.45643070441405     
 soft         electrons   133.577779244226     
 augmentation electrons   4.45643070441405     
 soft         electrons   133.577779244226     
 total        electrons   138.034209948640     
 augmentation electrons   4.45643070441405     
 soft         electrons   133.577779244226     
 augmentation electrons   4.45643070441405     
 soft         electrons   133.577779244226     
 augmentation electrons   4.45643070441405     
 soft         electrons   133.577779244226     
 total        electrons   138.034209948640     
 augmentation electrons   4.45643070441405     
 soft         electrons   133.577779244226     
 augmentation electrons   4.45643070441405     
 soft         electrons   133.577779244226     
 augmentation electrons   4.45643070441405     
 soft         electrons   133.577779244226     
 total        electrons   138.034209948640     
 augmentation electrons   4.45643070441405     
 soft         electrons   133.577779244226     
 augmentation electrons   4.45643070441405     
 soft         electrons   133.577779244226     
 augmentation electrons   4.45643070441405     
 soft         electrons   133.577779244226     
 total        electrons   138.034209948640     
 augmentation electrons   4.45643070441405     
 soft         electrons   133.577779244226     
 augmentation electrons   4.45643070441405     
 soft         electrons   133.577779244226     
 augmentation electrons   4.45643070441405     
 soft         electrons   133.577779244226     
 total        electrons   138.034209948640     
 augmentation electrons   4.45643070441405     
 soft         electrons   133.577779244226     
 augmentation electrons   4.45643070441405     
 soft         electrons   133.577779244226     
 augmentation electrons   4.45643070441405     
 soft         electrons   133.577779244226     
 total        electrons   138.034209948640     
 augmentation electrons   4.45643070441405     
 soft         electrons   133.577779244226     
 augmentation electrons   4.45643070441405     
 soft         electrons   133.577779244226     
 augmentation electrons   4.45643070441405     
 soft         electrons   133.577779244226     
 total        electrons   138.034209948640     
 augmentation electrons   4.45643070441405     
 soft         electrons   133.577779244226     
 augmentation electrons   4.45643070441405     
 soft         electrons   133.577779244226     
 augmentation electrons   4.45643070441405     
 soft         electrons   133.577779244226     
 total        electrons   138.034209948640     
 augmentation electrons   4.45643070441405     
 soft         electrons   133.577779244226     
 augmentation electrons   4.45643070441405     
 augmentation electrons   4.45643070441405     
 soft         electrons   133.577779244226     
 total        electrons   138.034209948640     
 augmentation electrons   4.45643070441405     
 soft         electrons   133.577779244226     
 augmentation electrons   4.45643070441405     
 soft         electrons   133.577779244226     
 total        electrons   138.034209948640     
 augmentation electrons   4.45643070441405     
 soft         electrons   133.577779244226     
 augmentation electrons   4.45643070441405     
 soft         electrons   133.577779244226     
 total        electrons   138.034209948640     
 augmentation electrons   4.45643070441405     
 soft         electrons   133.577779244226     
 augmentation electrons   4.45643070441405     
 soft         electrons   133.577779244226     
 total        electrons   138.034209948640     
 augmentation electrons   4.45643070441405     
 augmentation electrons   4.45643070441405     
 soft         electrons   133.577779244226     
 total        electrons   138.034209948640     
 augmentation electrons   4.45643070441405     
 soft         electrons   133.577779244226     
 augmentation electrons   4.45643070441405     
 soft         electrons   133.577779244226     
 total        electrons   138.034209948640     
 augmentation electrons   4.45643070441405     
 soft         electrons   133.577779244226     
 soft         electrons   133.577779244226     
 total        electrons   138.034209948640     
 augmentation electrons   4.45643070441405     
 soft         electrons   133.577779244226     
 total        electrons   138.034209948640     
 total        electrons   138.034209948640     
 augmentation electrons   4.45643070441405     
 soft         electrons   133.577779244226     
 total        electrons   138.034209948640     
 total        electrons   138.034209948640     
 augmentation electrons   4.45643070441405     
 soft         electrons   133.577779244226     
 total        electrons   138.034209948640     
 total        electrons   138.034209948640     
 soft         electrons   133.577779244226     
 total        electrons   138.034209948640     
 total        electrons   138.034209948640     
 total        electrons   138.034209948640     
 total        electrons   138.034209948640     
 total        electrons   138.034209948640     
 total        electrons   138.034209948640     
 total        electrons   138.034209948640     
 total        electrons   138.034209948640     
 total        electrons   138.034209948640     
 total        electrons   138.034209948640     
 total        electrons   138.034209948640     
 total        electrons   138.034209948640     
 total        electrons   138.034209948640     
 total        electrons   138.034209948640     
 total        electrons   138.034209948640     
 total        electrons   138.034209948640     
 total        electrons   138.034209948640     
 total        electrons   138.034209948640     
 total        electrons   138.034209948640     
 total        electrons   138.034209948640     
 total        electrons   138.034209948640     
 total        electrons   138.034209948640     
 total        electrons   138.034209948640     
 total        electrons   138.034209948640     
 total        electrons   138.034209948640     
 total        electrons   138.034209948640     
 total        electrons   138.034209948640     
 total        electrons   138.034209948640     
 total        electrons   138.034209948640     
 total        electrons   138.034209948640     
 total        electrons   138.034209948640     
 total        electrons   138.034209948640     
 total        electrons   138.034209948640     
 total        electrons   138.034209948640     
 total        electrons   138.034209948640     
 total        electrons   138.034209948640     
 total        electrons   138.034209948640     
 total        electrons   138.034209948640     
 total        electrons   138.034209948640     
 total        electrons   138.034209948640     
 total        electrons   138.034209948640     
 total        electrons   138.034209948640     
 total        electrons   138.034209948640     
 total        electrons   138.034209948640     
 total        electrons   138.034209948640     
 total        electrons   138.034209948640     
 total        electrons   138.034209948640     
 total        electrons   138.034209948640     
 total        electrons   138.034209948640     
 total        electrons   138.034209948640     
