Mg_slab_in_a_box                        
           1
     9.555753    0.000000    0.000000
    -4.777876    8.275525    0.000000
     0.000000    0.000000   32.625095
   Mg   O    H 
  45   6  12
Direct configuration=     1
   0.00000000  0.00000000  0.00000000
   0.99954679  0.99954752  0.15795291
   0.00406154  0.00465881  0.33010756
   0.00000001  0.33333336  0.00000000
   0.00061058  0.33269983  0.15747359
   0.99361597  0.33140713  0.30972931
   0.00000002  0.66666672  0.00000000
   0.99909687  0.66526006  0.15742498
   0.00733752  0.67080738  0.31333759
   0.33333334  0.00000000  0.00000000
   0.33391827  0.99998647  0.15696972
   0.32776852  0.99714316  0.30841872
   0.33333335  0.33333336  0.00000000
   0.33324359  0.33277496  0.15779886
   0.32654098  0.33608132  0.31539354
   0.33333336  0.66666672  0.00000000
   0.33323539  0.66651689  0.15825645
   0.32623379  0.66027297  0.33320776
   0.66666668  0.00000000  0.00000000
   0.66686626  0.99844635  0.15731147
   0.66555101  0.99618353  0.31288658
   0.66666668  0.33333336  0.00000000
   0.66662782  0.33346916  0.15863223
   0.66206375  0.31504908  0.32390713
   0.66666670  0.66666672  0.00000000
   0.66840680  0.66639899  0.15880211
   0.67152956  0.66728154  0.32252770
   0.11111113  0.22222222  0.07982145
   0.11178495  0.21854725  0.23663435
   0.11111114  0.55555561  0.07982145
   0.11678775  0.55776136  0.23600292
   0.11111116  0.88888894  0.07982145
   0.10870670  0.88636762  0.23395361
   0.44444450  0.22222222  0.07982145
   0.44705772  0.22660995  0.23654533
   0.44444450  0.55555561  0.07982145
   0.44708737  0.55840401  0.23676748
   0.44444451  0.88888894  0.07982145
   0.44412930  0.88460410  0.23546666
   0.77777779  0.22222222  0.07982145
   0.77430972  0.21872254  0.23455906
   0.77777781  0.55555561  0.07982145
   0.77513026  0.55016433  0.23972209
   0.77777784  0.88888894  0.07982145
   0.78174414  0.88657112  0.23863415
   0.99581168  0.01344680  0.39558922
   0.27894595  0.97135267  0.41182625
   0.89743518  0.24850260  0.41143877
   0.63575914  0.32815424  0.38787187
   0.65561566  0.60281160  0.38074232
   0.30128024  0.69254621  0.39731179
   0.97194748  0.09364161  0.40805340
   0.08159863  0.01028190  0.41147699
   0.38256331  0.07362768  0.41176625
   0.24652897  0.95755413  0.38226504
   0.99431409  0.35529172  0.40845096
   0.86189519  0.21737913  0.38237298
   0.64388358  0.44077429  0.39198965
   0.72041823  0.32425116  0.40406201
   0.65172741  0.67843808  0.40001875
   0.43308764  0.53451333  0.34847807
   0.30013999  0.79116591  0.40685236
   0.36231794  0.66829435  0.41722489
