  63  63   0   0
  0.4095168E+02  0.9555753E-09  0.9555753E-09  0.3262510E-08  0.5000000E-15
  1.000000000000000E-004
  CAR 
 Mg_slab_in_a_box                        
      4.19066854    -25.80144748  301     -0.64115273      1.00000000
    -25.801  0.0000E+00  0.0000E+00
    -25.701  0.0000E+00  0.0000E+00
    -25.602  0.0000E+00  0.0000E+00
    -25.502  0.0000E+00  0.0000E+00
    -25.402  0.0000E+00  0.0000E+00
    -25.302  0.0000E+00  0.0000E+00
    -25.202  0.0000E+00  0.0000E+00
    -25.102  0.0000E+00  0.0000E+00
    -25.002  0.0000E+00  0.0000E+00
    -24.902  0.0000E+00  0.0000E+00
    -24.802  0.0000E+00  0.0000E+00
    -24.702  0.0000E+00  0.0000E+00
    -24.602  0.0000E+00  0.0000E+00
    -24.502  0.0000E+00  0.0000E+00
    -24.402  0.0000E+00  0.0000E+00
    -24.302  0.0000E+00  0.0000E+00
    -24.202  0.0000E+00  0.0000E+00
    -24.102  0.0000E+00  0.0000E+00
    -24.002  0.0000E+00  0.0000E+00
    -23.902  0.0000E+00  0.0000E+00
    -23.802  0.0000E+00  0.0000E+00
    -23.702  0.1030E+01  0.3999E+01
    -23.602  0.0000E+00  0.6000E+01
    -23.502  0.0000E+00  0.6000E+01
    -23.402  0.0000E+00  0.8000E+01
    -23.302  0.3490E+02  0.1187E+02
    -23.202  0.0000E+00  0.1200E+02
    -23.102  0.0000E+00  0.1200E+02
    -23.002  0.0000E+00  0.1200E+02
    -22.902  0.0000E+00  0.1200E+02
    -22.802  0.0000E+00  0.1200E+02
    -22.702  0.0000E+00  0.1200E+02
    -22.602  0.0000E+00  0.1200E+02
    -22.502  0.0000E+00  0.1200E+02
    -22.402  0.0000E+00  0.1200E+02
    -22.302  0.0000E+00  0.1200E+02
    -22.202  0.0000E+00  0.1200E+02
    -22.102  0.0000E+00  0.1200E+02
    -22.002  0.0000E+00  0.1200E+02
    -21.902  0.0000E+00  0.1200E+02
    -21.802  0.0000E+00  0.1200E+02
    -21.703  0.0000E+00  0.1200E+02
    -21.603  0.0000E+00  0.1200E+02
    -21.503  0.0000E+00  0.1200E+02
    -21.403  0.0000E+00  0.1200E+02
    -21.303  0.0000E+00  0.1200E+02
    -21.203  0.0000E+00  0.1200E+02
    -21.103  0.0000E+00  0.1200E+02
    -21.003  0.0000E+00  0.1200E+02
    -20.903  0.0000E+00  0.1200E+02
    -20.803  0.0000E+00  0.1200E+02
    -20.703  0.0000E+00  0.1200E+02
    -20.603  0.0000E+00  0.1200E+02
    -20.503  0.0000E+00  0.1200E+02
    -20.403  0.0000E+00  0.1200E+02
    -20.303  0.0000E+00  0.1200E+02
    -20.203  0.0000E+00  0.1200E+02
    -20.103  0.0000E+00  0.1200E+02
    -20.003  0.0000E+00  0.1200E+02
    -19.903  0.0000E+00  0.1200E+02
    -19.803  0.0000E+00  0.1200E+02
    -19.703  0.0000E+00  0.1200E+02
    -19.603  0.0000E+00  0.1200E+02
    -19.503  0.0000E+00  0.1200E+02
    -19.403  0.0000E+00  0.1200E+02
    -19.303  0.0000E+00  0.1200E+02
    -19.203  0.0000E+00  0.1200E+02
    -19.103  0.0000E+00  0.1200E+02
    -19.003  0.0000E+00  0.1200E+02
    -18.903  0.0000E+00  0.1200E+02
    -18.803  0.0000E+00  0.1200E+02
    -18.703  0.0000E+00  0.1200E+02
    -18.603  0.0000E+00  0.1200E+02
    -18.503  0.0000E+00  0.1200E+02
    -18.403  0.0000E+00  0.1200E+02
    -18.303  0.0000E+00  0.1200E+02
    -18.203  0.0000E+00  0.1200E+02
    -18.103  0.0000E+00  0.1200E+02
    -18.003  0.0000E+00  0.1200E+02
    -17.904  0.0000E+00  0.1200E+02
    -17.804  0.0000E+00  0.1200E+02
    -17.704  0.0000E+00  0.1200E+02
    -17.604  0.0000E+00  0.1200E+02
    -17.504  0.0000E+00  0.1200E+02
    -17.404  0.0000E+00  0.1200E+02
    -17.304  0.0000E+00  0.1200E+02
    -17.204  0.0000E+00  0.1200E+02
    -17.104  0.0000E+00  0.1200E+02
    -17.004  0.0000E+00  0.1200E+02
    -16.904  0.0000E+00  0.1200E+02
    -16.804  0.0000E+00  0.1200E+02
    -16.704  0.0000E+00  0.1200E+02
    -16.604  0.0000E+00  0.1200E+02
    -16.504  0.0000E+00  0.1200E+02
    -16.404  0.0000E+00  0.1200E+02
    -16.304  0.0000E+00  0.1200E+02
    -16.204  0.0000E+00  0.1200E+02
    -16.104  0.0000E+00  0.1200E+02
    -16.004  0.0000E+00  0.1200E+02
    -15.904  0.0000E+00  0.1200E+02
    -15.804  0.0000E+00  0.1200E+02
    -15.704  0.0000E+00  0.1200E+02
    -15.604  0.0000E+00  0.1200E+02
    -15.504  0.0000E+00  0.1200E+02
    -15.404  0.0000E+00  0.1200E+02
    -15.304  0.0000E+00  0.1200E+02
    -15.204  0.0000E+00  0.1200E+02
    -15.104  0.0000E+00  0.1200E+02
    -15.004  0.0000E+00  0.1200E+02
    -14.904  0.0000E+00  0.1200E+02
    -14.804  0.0000E+00  0.1200E+02
    -14.704  0.0000E+00  0.1200E+02
    -14.604  0.0000E+00  0.1200E+02
    -14.504  0.0000E+00  0.1200E+02
    -14.404  0.0000E+00  0.1200E+02
    -14.304  0.0000E+00  0.1200E+02
    -14.204  0.0000E+00  0.1200E+02
    -14.105  0.0000E+00  0.1200E+02
    -14.005  0.0000E+00  0.1200E+02
    -13.905  0.0000E+00  0.1200E+02
    -13.805  0.0000E+00  0.1200E+02
    -13.705  0.0000E+00  0.1200E+02
    -13.605  0.0000E+00  0.1200E+02
    -13.505  0.0000E+00  0.1200E+02
    -13.405  0.0000E+00  0.1200E+02
    -13.305  0.0000E+00  0.1200E+02
    -13.205  0.0000E+00  0.1200E+02
    -13.105  0.0000E+00  0.1200E+02
    -13.005  0.0000E+00  0.1200E+02
    -12.905  0.0000E+00  0.1200E+02
    -12.805  0.0000E+00  0.1200E+02
    -12.705  0.0000E+00  0.1200E+02
    -12.605  0.0000E+00  0.1200E+02
    -12.505  0.0000E+00  0.1200E+02
    -12.405  0.0000E+00  0.1200E+02
    -12.305  0.0000E+00  0.1200E+02
    -12.205  0.0000E+00  0.1200E+02
    -12.105  0.0000E+00  0.1200E+02
    -12.005  0.0000E+00  0.1200E+02
    -11.905  0.0000E+00  0.1200E+02
    -11.805  0.1157E+03  0.1788E+02
    -11.705  0.0000E+00  0.1800E+02
    -11.605  0.0000E+00  0.1800E+02
    -11.505  0.0000E+00  0.1800E+02
    -11.405  0.0000E+00  0.1800E+02
    -11.305  0.0000E+00  0.1800E+02
    -11.205  0.0000E+00  0.1800E+02
    -11.105  0.7449E+02  0.2022E+02
    -11.005  0.8209E+02  0.2278E+02
    -10.905  0.0000E+00  0.2400E+02
    -10.805  0.0000E+00  0.2400E+02
    -10.705  0.0000E+00  0.2400E+02
    -10.605  0.0000E+00  0.2400E+02
    -10.505  0.0000E+00  0.2400E+02
    -10.405  0.0000E+00  0.2400E+02
    -10.306  0.0000E+00  0.2400E+02
    -10.206  0.0000E+00  0.2400E+02
    -10.106  0.0000E+00  0.2400E+02
    -10.006  0.0000E+00  0.2400E+02
     -9.906  0.0000E+00  0.2400E+02
     -9.806  0.0000E+00  0.2400E+02
     -9.706  0.0000E+00  0.2400E+02
     -9.606  0.0000E+00  0.2400E+02
     -9.506  0.0000E+00  0.2400E+02
     -9.406  0.0000E+00  0.2400E+02
     -9.306  0.0000E+00  0.2400E+02
     -9.206  0.0000E+00  0.2400E+02
     -9.106  0.0000E+00  0.2400E+02
     -9.006  0.0000E+00  0.2400E+02
     -8.906  0.0000E+00  0.2400E+02
     -8.806  0.0000E+00  0.2400E+02
     -8.706  0.0000E+00  0.2400E+02
     -8.606  0.1286E+03  0.2714E+02
     -8.506  0.0000E+00  0.3000E+02
     -8.406  0.0000E+00  0.3000E+02
     -8.306  0.0000E+00  0.3000E+02
     -8.206  0.0000E+00  0.3000E+02
     -8.106  0.0000E+00  0.3000E+02
     -8.006  0.0000E+00  0.3000E+02
     -7.906  0.7547E+02  0.3186E+02
     -7.806  0.6486E+02  0.3533E+02
     -7.706  0.0000E+00  0.3600E+02
     -7.606  0.0000E+00  0.3600E+02
     -7.506  0.0000E+00  0.3600E+02
     -7.406  0.4445E+00  0.3600E+02
     -7.306  0.2715E+01  0.3616E+02
     -7.206  0.4986E+01  0.3655E+02
     -7.106  0.4670E+01  0.3706E+02
     -7.006  0.3508E+01  0.3747E+02
     -6.906  0.2346E+01  0.3776E+02
     -6.806  0.1608E+01  0.3794E+02
     -6.706  0.3019E+01  0.3817E+02
     -6.606  0.3362E+02  0.3995E+02
     -6.507  0.1209E+02  0.4119E+02
     -6.407  0.8149E+01  0.4405E+02
     -6.307  0.6511E+01  0.4591E+02
     -6.207  0.2781E+01  0.4759E+02
     -6.107  0.1829E+01  0.4782E+02
     -6.007  0.1643E+02  0.4851E+02
     -5.907  0.4624E+02  0.5145E+02
     -5.807  0.1702E+02  0.5582E+02
     -5.707  0.7313E+01  0.5841E+02
     -5.607  0.1373E+02  0.5951E+02
     -5.507  0.9915E+01  0.6069E+02
     -5.407  0.6103E+01  0.6149E+02
     -5.307  0.2291E+01  0.6191E+02
     -5.207  0.1497E+02  0.6218E+02
     -5.107  0.3250E+02  0.6553E+02
     -5.007  0.0000E+00  0.6600E+02
     -4.907  0.1008E+02  0.6663E+02
     -4.807  0.5741E+01  0.6742E+02
     -4.707  0.2776E+01  0.6780E+02
     -4.607  0.6791E+01  0.6827E+02
     -4.507  0.7816E+01  0.7056E+02
     -4.407  0.1703E+02  0.7180E+02
     -4.307  0.9676E+01  0.7371E+02
     -4.207  0.2271E+02  0.7579E+02
     -4.107  0.1237E+02  0.7789E+02
     -4.007  0.1306E+01  0.7837E+02
     -3.907  0.1253E+02  0.7875E+02
     -3.807  0.2619E+02  0.8130E+02
     -3.707  0.1757E+02  0.8357E+02
     -3.607  0.7062E+01  0.8472E+02
     -3.507  0.6382E+01  0.8537E+02
     -3.407  0.6301E+01  0.8600E+02
     -3.307  0.6220E+01  0.8663E+02
     -3.207  0.6587E+01  0.8725E+02
     -3.107  0.5660E+02  0.8919E+02
     -3.007  0.8208E+01  0.9124E+02
     -2.907  0.2445E+02  0.9243E+02
     -2.807  0.4674E+02  0.9616E+02
     -2.708  0.2390E+02  0.9969E+02
     -2.608  0.1065E+02  0.1013E+03
     -2.508  0.6189E+01  0.1021E+03
     -2.408  0.3829E+02  0.1031E+03
     -2.308  0.3926E+02  0.1068E+03
     -2.208  0.2243E+01  0.1075E+03
     -2.108  0.1122E+02  0.1087E+03
     -2.008  0.3520E+01  0.1094E+03
     -1.908  0.1243E+02  0.1100E+03
     -1.808  0.3096E+02  0.1122E+03
     -1.708  0.3349E+02  0.1154E+03
     -1.608  0.3811E+02  0.1189E+03
     -1.508  0.2277E+02  0.1222E+03
     -1.408  0.1390E+02  0.1240E+03
     -1.308  0.1516E+02  0.1251E+03
     -1.208  0.1052E+02  0.1276E+03
     -1.108  0.8214E+01  0.1285E+03
     -1.008  0.1896E+02  0.1297E+03
     -0.908  0.4027E+02  0.1327E+03
     -0.808  0.1323E+02  0.1350E+03
     -0.708  0.1026E+02  0.1360E+03
     -0.608  0.5380E+02  0.1401E+03
     -0.508  0.1808E+02  0.1428E+03
     -0.408  0.8953E+01  0.1445E+03
     -0.308  0.1550E+02  0.1457E+03
     -0.208  0.1409E+02  0.1472E+03
     -0.108  0.1552E+02  0.1485E+03
     -0.008  0.0000E+00  0.1500E+03
      0.092  0.1771E+02  0.1539E+03
      0.192  0.6234E+02  0.1565E+03
      0.292  0.2178E+01  0.1601E+03
      0.392  0.9790E+01  0.1606E+03
      0.492  0.2967E+02  0.1621E+03
      0.592  0.3603E+02  0.1651E+03
      0.692  0.1501E+02  0.1692E+03
      0.792  0.8763E+01  0.1703E+03
      0.892  0.5880E+02  0.1730E+03
      0.992  0.1314E+02  0.1755E+03
      1.091  0.1760E+02  0.1783E+03
      1.191  0.2058E+02  0.1802E+03
      1.291  0.2726E+02  0.1827E+03
      1.391  0.2816E+02  0.1862E+03
      1.491  0.5442E+02  0.1910E+03
      1.591  0.8476E+02  0.1960E+03
      1.691  0.2452E+02  0.1996E+03
      1.791  0.5682E+01  0.2008E+03
      1.891  0.5236E+01  0.2013E+03
      1.991  0.6541E+01  0.2019E+03
      2.091  0.3869E+01  0.2025E+03
      2.191  0.0000E+00  0.2040E+03
      2.291  0.0000E+00  0.2040E+03
      2.391  0.0000E+00  0.2040E+03
      2.491  0.0000E+00  0.2040E+03
      2.591  0.0000E+00  0.2040E+03
      2.691  0.0000E+00  0.2040E+03
      2.791  0.0000E+00  0.2040E+03
      2.891  0.0000E+00  0.2040E+03
      2.991  0.0000E+00  0.2040E+03
      3.091  0.0000E+00  0.2040E+03
      3.191  0.0000E+00  0.2040E+03
      3.291  0.0000E+00  0.2040E+03
      3.391  0.0000E+00  0.2040E+03
      3.491  0.0000E+00  0.2040E+03
      3.591  0.0000E+00  0.2040E+03
      3.691  0.0000E+00  0.2040E+03
      3.791  0.0000E+00  0.2040E+03
      3.891  0.0000E+00  0.2040E+03
      3.991  0.0000E+00  0.2040E+03
      4.091  0.0000E+00  0.2040E+03
      4.191  0.0000E+00  0.2040E+03
