 vasp.5.4.4.18Apr17-6-g9f103f2a35 (build Jun 08 2018 12:06:12) complex          
  
 executed on             LinuxIFC date 2019.06.06  06:28:27
 running on   72 total cores
 distrk:  each k-point on   72 cores,    1 groups
 distr:  one band on NCORES_PER_BAND=  24 cores,    3 groups


--------------------------------------------------------------------------------------------------------


 INCAR:
 POTCAR:    PAW_PBE Mg 13Apr2007                  
 POTCAR:    PAW_PBE O 08Apr2002                   
 POTCAR:    PAW_PBE H 15Jun2001                   

 ----------------------------------------------------------------------------- 
|                                                                             |
|           W    W    AA    RRRRR   N    N  II  N    N   GGGG   !!!           |
|           W    W   A  A   R    R  NN   N  II  NN   N  G    G  !!!           |
|           W    W  A    A  R    R  N N  N  II  N N  N  G       !!!           |
|           W WW W  AAAAAA  RRRRR   N  N N  II  N  N N  G  GGG   !            |
|           WW  WW  A    A  R   R   N   NN  II  N   NN  G    G                |
|           W    W  A    A  R    R  N    N  II  N    N   GGGG   !!!           |
|                                                                             |
|      For optimal performance we recommend to set                            |
|        NCORE= 4 - approx SQRT( number of cores)                             |
|      NCORE specifies how many cores store one orbital (NPAR=cpu/NCORE).     |
|      This setting can  greatly improve the performance of VASP for DFT.     |
|      The default,   NCORE=1            might be grossly inefficient         |
|      on modern multi-core architectures or massively parallel machines.     |
|      Do your own testing !!!!                                               |
|      Unfortunately you need to use the default for GW and RPA calculations. |
|      (for HF NCORE is supported but not extensively tested yet)             |
|                                                                             |
 ----------------------------------------------------------------------------- 


 ----------------------------------------------------------------------------- 
|                                                                             |
|  ADVICE TO THIS USER RUNNING 'VASP/VAMP'   (HEAR YOUR MASTER'S VOICE ...):  |
|                                                                             |
|      You have switched on vdW-DFT.                                          |
|      This routine was written and supplied by Jiri Klimes.                  |
|      We recommed that you carefully read and cite the following             |
|      publication                                                            |
|      J. Klimes, D.R. Bowler, A. Michelides                                  |
|        J. Phys.: Cond Matt. 22 022201 (2010)                                |
|      J. Klimes, D.R. Bowler, A. Michelides                                  |
|        Phys. Rev. B. 83, 195131 (2011)                                      |
|      and references therein.                                                |
|                                                                             |
 ----------------------------------------------------------------------------- 

 POTCAR:    PAW_PBE Mg 13Apr2007                  
   VRHFIN =Mg: s2p0                                                             
   LEXCH  = PE                                                                  
   EATOM  =    23.0369 eV,    1.6932 Ry                                         
                                                                                
   TITEL  = PAW_PBE Mg 13Apr2007                                                
   LULTRA =        F    use ultrasoft PP ?                                      
   IUNSCR =        1    unscreen: 0-lin 1-nonlin 2-no                           
   RPACOR =    1.500    partial core radius                                     
   POMASS =   24.305; ZVAL   =    2.000    mass and valenz                      
   RCORE  =    2.000    outmost cutoff radius                                   
   RWIGS  =    2.880; RWIGS  =    1.524    wigner-seitz radius (au A)           
   ENMAX  =  200.000; ENMIN  =  100.000 eV                                      
   RCLOC  =    1.506    cutoff for local pot                                    
   LCOR   =        T    correct aug charges                                     
   LPAW   =        T    paw PP                                                  
   EAUG   =  454.734                                                            
   DEXC   =    0.000                                                            
   RMAX   =    2.045    core radius for proj-oper                               
   RAUG   =    1.300    factor for augmentation sphere                          
   RDEP   =    2.025    radius for radial grids                                 
   RDEPT  =    1.942    core radius for aug-charge                              
                                                                                
   Atomic configuration                                                         
    6 entries                                                                   
     n  l   j            E        occ.                                          
     1  0  0.50     -1259.6230   2.0000                                         
     2  0  0.50       -79.8442   2.0000                                         
     2  1  1.50       -46.6121   6.0000                                         
     3  0  0.50        -4.7055   2.0000                                         
     3  1  0.50        -1.3660   0.0000                                         
     3  2  1.50        -1.3606   0.0000                                         
   Description                                                                  
     l       E           TYP  RCUT    TYP  RCUT                                 
     0     -4.7054661     23  2.000                                             
     0     27.2116520     23  2.000                                             
     1      1.3605826     23  2.000                                             
     1     27.2116520     23  2.000                                             
     2     -1.3605826     23  2.000                                             
  local pseudopotential read in
  partial core-charges read in
  partial kinetic energy density read in
  atomic valenz-charges read in
  non local Contribution for L=           0  read in
    real space projection operators read in
  non local Contribution for L=           0  read in
    real space projection operators read in
  non local Contribution for L=           1  read in
    real space projection operators read in
  non local Contribution for L=           1  read in
    real space projection operators read in
  non local Contribution for L=           2  read in
    real space projection operators read in
    PAW grid and wavefunctions read in
 
   number of l-projection  operators is LMAX  =           5
   number of lm-projection operators is LMMAX =          13
 
 POTCAR:    PAW_PBE O 08Apr2002                   
   VRHFIN =O: s2p4                                                              
   LEXCH  = PE                                                                  
   EATOM  =   432.3788 eV,   31.7789 Ry                                         
                                                                                
   TITEL  = PAW_PBE O 08Apr2002                                                 
   LULTRA =        F    use ultrasoft PP ?                                      
   IUNSCR =        1    unscreen: 0-lin 1-nonlin 2-no                           
   RPACOR =    1.200    partial core radius                                     
   POMASS =   16.000; ZVAL   =    6.000    mass and valenz                      
   RCORE  =    1.520    outmost cutoff radius                                   
   RWIGS  =    1.550; RWIGS  =    0.820    wigner-seitz radius (au A)           
   ENMAX  =  400.000; ENMIN  =  300.000 eV                                      
   ICORE  =        2    local potential                                         
   LCOR   =        T    correct aug charges                                     
   LPAW   =        T    paw PP                                                  
   EAUG   =  605.392                                                            
   DEXC   =    0.000                                                            
   RMAX   =    1.553    core radius for proj-oper                               
   RAUG   =    1.300    factor for augmentation sphere                          
   RDEP   =    1.550    radius for radial grids                                 
   RDEPT  =    1.329    core radius for aug-charge                              
                                                                                
   Atomic configuration                                                         
    4 entries                                                                   
     n  l   j            E        occ.                                          
     1  0  0.50      -514.6923   2.0000                                         
     2  0  0.50       -23.9615   2.0000                                         
     2  1  0.50        -9.0305   4.0000                                         
     3  2  1.50        -9.5241   0.0000                                         
   Description                                                                  
     l       E           TYP  RCUT    TYP  RCUT                                 
     0    -23.9615318     23  1.200                                             
     0     -9.5240782     23  1.200                                             
     1     -9.0304911     23  1.520                                             
     1      8.1634956     23  1.520                                             
     2     -9.5240782      7  1.500                                             
  local pseudopotential read in
  partial core-charges read in
  partial kinetic energy density read in
  kinetic energy density of atom read in
  atomic valenz-charges read in
  non local Contribution for L=           0  read in
    real space projection operators read in
  non local Contribution for L=           0  read in
    real space projection operators read in
  non local Contribution for L=           1  read in
    real space projection operators read in
  non local Contribution for L=           1  read in
    real space projection operators read in
    PAW grid and wavefunctions read in
 
   number of l-projection  operators is LMAX  =           4
   number of lm-projection operators is LMMAX =           8
 
 POTCAR:    PAW_PBE H 15Jun2001                   
   VRHFIN =H: ultrasoft test                                                    
   LEXCH  = PE                                                                  
   EATOM  =    12.4884 eV,    0.9179 Ry                                         
                                                                                
   TITEL  = PAW_PBE H 15Jun2001                                                 
   LULTRA =        F    use ultrasoft PP ?                                      
   IUNSCR =        0    unscreen: 0-lin 1-nonlin 2-no                           
   RPACOR =    0.000    partial core radius                                     
   POMASS =    1.000; ZVAL   =    1.000    mass and valenz                      
   RCORE  =    1.100    outmost cutoff radius                                   
   RWIGS  =    0.700; RWIGS  =    0.370    wigner-seitz radius (au A)           
   ENMAX  =  250.000; ENMIN  =  200.000 eV                                      
   RCLOC  =    0.701    cutoff for local pot                                    
   LCOR   =        T    correct aug charges                                     
   LPAW   =        T    paw PP                                                  
   EAUG   =  400.000                                                            
   RMAX   =    1.123    core radius for proj-oper                               
   RAUG   =    1.200    factor for augmentation sphere                          
   RDEP   =    1.112    radius for radial grids                                 
   RDEPT  =    0.926    core radius for aug-charge                              
                                                                                
   Atomic configuration                                                         
    2 entries                                                                   
     n  l   j            E        occ.                                          
     1  0  0.50        -6.4927   1.0000                                         
     2  1  0.50        -3.4015   0.0000                                         
   Description                                                                  
     l       E           TYP  RCUT    TYP  RCUT                                 
     0     -6.4927494     23  1.100                                             
     0      6.8029130     23  1.100                                             
     1     -4.0817478     23  1.100                                             
  local pseudopotential read in
  atomic valenz-charges read in
  non local Contribution for L=           0  read in
    real space projection operators read in
  non local Contribution for L=           0  read in
    real space projection operators read in
  non local Contribution for L=           1  read in
    real space projection operators read in
    PAW grid and wavefunctions read in
 
   number of l-projection  operators is LMAX  =           3
   number of lm-projection operators is LMMAX =           5
 
 Optimization of the real space projectors (new method)

 maximal supplied QI-value         = 18.90
 optimisation between [QCUT,QGAM] = [ 11.53, 23.24] = [ 37.21,151.29] Ry 
 Optimized for a Real-space Cutoff    1.28 Angstroem

   l    n(q)    QCUT    max X(q) W(low)/X(q) W(high)/X(q)  e(spline) 
   0      9    11.527    28.265    0.62E-04    0.53E-04    0.73E-07
   0      9    11.527    10.429    0.52E-04    0.40E-04    0.58E-07
   1      8    11.527    13.073    0.98E-04    0.18E-03    0.86E-07
   1      8    11.527     9.625    0.79E-04    0.15E-03    0.74E-07
   2      8    11.527     4.652    0.22E-03    0.72E-04    0.47E-07
 Optimization of the real space projectors (new method)

 maximal supplied QI-value         = 24.76
 optimisation between [QCUT,QGAM] = [ 11.64, 23.27] = [ 37.91,151.63] Ry 
 Optimized for a Real-space Cutoff    1.14 Angstroem

   l    n(q)    QCUT    max X(q) W(low)/X(q) W(high)/X(q)  e(spline) 
   0      8    11.635    20.381    0.10E-03    0.33E-03    0.24E-06
   0      8    11.635    15.268    0.11E-03    0.35E-03    0.26E-06
   1      7    11.635     5.964    0.24E-03    0.31E-03    0.30E-06
   1      7    11.635     5.382    0.22E-03    0.25E-03    0.26E-06
 Optimization of the real space projectors (new method)

 maximal supplied QI-value         = 34.20
 optimisation between [QCUT,QGAM] = [ 11.63, 23.26] = [ 37.87,151.49] Ry 
 Optimized for a Real-space Cutoff    1.21 Angstroem

   l    n(q)    QCUT    max X(q) W(low)/X(q) W(high)/X(q)  e(spline) 
   0      8    11.629    19.460    0.17E-03    0.34E-03    0.21E-06
   0      8    11.629    12.209    0.16E-03    0.33E-03    0.21E-06
   1      8    11.629     4.655    0.18E-03    0.16E-03    0.26E-06

 ----------------------------------------------------------------------------- 
|                                                                             |
|  ADVICE TO THIS USER RUNNING 'VASP/VAMP'   (HEAR YOUR MASTER'S VOICE ...):  |
|                                                                             |
|      You enforced a specific xc-type in the INCAR file,                     |
|      a different type was found on the POTCAR file                          |
|          I HOPE YOU KNOW, WHAT YOU ARE  DOING                               |
|                                                                             |
 ----------------------------------------------------------------------------- 

  PAW_PBE Mg 13Apr2007                  :
 energy of atom  1       EATOM=  -23.0369
 kinetic energy error for atom=    0.0000 (will be added to EATOM!!)
  PAW_PBE O 08Apr2002                   :
 energy of atom  2       EATOM= -432.3788
 kinetic energy error for atom=    0.0208 (will be added to EATOM!!)
  PAW_PBE H 15Jun2001                   :
 energy of atom  3       EATOM=  -12.4884
 kinetic energy error for atom=    0.0014 (will be added to EATOM!!)
 
 
 POSCAR: Mg   O    H                             
  positions in direct lattice
  velocities in cartesian coordinates
 exchange correlation table for  LEXCH =       42
   RHO(1)=    0.500       N(1)  =     2000
   RHO(2)=  100.500       N(2)  =     4000

 VTST: version 3.2, (02/03/18)

 CHAIN: initializing optimizer
 
 OPT: Using VASP Dynamics algorithm
 CHAIN: Read ICHAIN            0
 
 POSCAR: Mg   O    H                             
  positions in direct lattice
  velocities in cartesian coordinates
 


--------------------------------------------------------------------------------------------------------


 ion  position               nearest neighbor table
   1  0.000  0.000  0.000-   7 3.19  25 3.19  19 3.19  10 3.19   4 3.19  13 3.19  44 3.19  32 3.19
                            28 3.19
   2  1.000  0.001  0.158-  33 3.10  45 3.12  29 3.12  28 3.14  44 3.15  32 3.15  14 3.18  26 3.18
                             5 3.18  20 3.18  11 3.19   8 3.19
   3  0.996  0.998  0.330-  46 2.17   9 3.21  21 3.21  27 3.23  12 3.25   6 3.26  15 3.27  45 3.55
                            29 3.57  33 3.60
   4  0.000  0.333  0.000-  22 3.19  13 3.19  19 3.19  16 3.19   1 3.19   7 3.19  40 3.19  30 3.19
                            28 3.19
   5  0.000  0.334  0.157-  30 3.13  28 3.13  40 3.13  41 3.15  29 3.17  31 3.17  14 3.18  17 3.18
                             8 3.18   2 3.18  23 3.19  20 3.19
   6  0.998  0.335  0.311-  31 3.07  29 3.09  41 3.09  21 3.17   9 3.19  15 3.19  18 3.24  24 3.26
                             3 3.26
   7  0.000  0.667  0.000-   1 3.19  10 3.19  25 3.19  16 3.19  22 3.19   4 3.19  42 3.19  32 3.19
                            30 3.19
   8  1.000  0.667  0.157-  42 3.13  32 3.13  30 3.13  33 3.14  43 3.15  31 3.16   5 3.18  26 3.18
                            17 3.18  23 3.18   2 3.19  11 3.19
   9  1.000  0.669  0.314-  43 3.14  31 3.15  33 3.15  12 3.17   6 3.19  27 3.20   3 3.21  18 3.21
                            24 3.26
  10  0.333  0.000  0.000-  16 3.19   7 3.19  19 3.19   1 3.19  22 3.19  13 3.19  32 3.19  34 3.19
                            38 3.19
  11  0.334  0.001  0.157-  34 3.12  32 3.13  38 3.13  33 3.15  39 3.17  35 3.17  23 3.18  14 3.18
                            20 3.18  17 3.18   2 3.19   8 3.19
  12  0.331  0.001  0.310-  35 3.06  33 3.07  39 3.07   9 3.17  15 3.20  21 3.20  24 3.23   3 3.25
                            18 3.26
  13  0.333  0.333  0.000-  22 3.19   4 3.19  10 3.19   1 3.19  25 3.19  16 3.19  28 3.19  36 3.19
                            34 3.19
  14  0.333  0.333  0.157-  28 3.13  36 3.13  34 3.13  37 3.13  35 3.15  29 3.16   2 3.18   5 3.18
                            11 3.18  23 3.18  17 3.19  26 3.19
  15  0.333  0.336  0.314-  29 3.14  35 3.15  37 3.16  27 3.17   6 3.19  12 3.20  24 3.21  18 3.21
                             3 3.27
  16  0.333  0.667  0.000-  10 3.19  19 3.19   7 3.19  25 3.19   4 3.19  13 3.19  38 3.19  30 3.19
                            36 3.19
  17  0.333  0.667  0.158-  37 3.10  39 3.12  31 3.12  38 3.14  30 3.15  36 3.15   5 3.18  20 3.18
                             8 3.18  11 3.18  26 3.19  14 3.19
  18  0.331  0.667  0.330-  51 2.15   9 3.21  15 3.21   6 3.24  12 3.26  27 3.26  21 3.26  31 3.56
                            39 3.57  37 3.61
  19  0.667  0.000  0.000-  25 3.19  16 3.19   1 3.19  10 3.19   4 3.19  22 3.19  38 3.19  44 3.19
                            40 3.19
  20  0.666  0.000  0.157-  38 3.13  40 3.13  44 3.13  41 3.14  45 3.15  39 3.16  11 3.18  17 3.18
                            26 3.18   2 3.18  23 3.19   5 3.19
  21  0.667  0.003  0.314-  39 3.13  41 3.14  45 3.14   6 3.17  27 3.20  12 3.20   3 3.21  24 3.21
                            18 3.26
  22  0.667  0.333  0.000-  13 3.19   4 3.19  10 3.19  25 3.19   7 3.19  19 3.19  34 3.19  42 3.19
                            40 3.19
  23  0.666  0.334  0.158-  41 3.10  43 3.12  35 3.12  42 3.15  34 3.15  40 3.15  11 3.18   8 3.18
                            14 3.18  26 3.18  20 3.19   5 3.19
  24  0.662  0.332  0.330-  49 2.17  15 3.21  21 3.21  12 3.23  27 3.25   6 3.26   9 3.26  35 3.54
                            43 3.57  41 3.60
  25  0.667  0.667  0.000-   1 3.19  19 3.19   7 3.19  16 3.19  22 3.19  13 3.19  36 3.19  42 3.19
                            44 3.19
  26  0.667  0.667  0.157-  44 3.12  36 3.13  42 3.13  37 3.15  43 3.17  45 3.17   2 3.18   8 3.18
                            20 3.18  23 3.18  17 3.19  14 3.19
  27  0.664  0.667  0.310-  45 3.06  37 3.07  43 3.07  15 3.17  21 3.20   9 3.20   3 3.23  24 3.25
                            18 3.26
  28  0.111  0.222  0.080-  14 3.13   5 3.13   2 3.14  44 3.19  32 3.19  40 3.19  34 3.19  36 3.19
                            30 3.19   1 3.19  13 3.19   4 3.19
  29  0.110  0.220  0.236-   6 3.09   2 3.12  45 3.14  15 3.14  33 3.15  14 3.16   5 3.17  37 3.19
                            35 3.19  41 3.22  31 3.23   3 3.57
  30  0.111  0.556  0.080-   5 3.13   8 3.13  17 3.15  32 3.19  42 3.19  38 3.19  40 3.19  36 3.19
                            28 3.19  16 3.19   7 3.19   4 3.19
  31  0.114  0.559  0.236-   6 3.07  17 3.12  39 3.14   9 3.15  37 3.15   8 3.16   5 3.17  33 3.18
                            43 3.19  41 3.22  29 3.23  18 3.56
  32  0.111  0.889  0.080-   8 3.13  11 3.13   2 3.15  28 3.19  34 3.19  44 3.19  30 3.19  42 3.19
                            38 3.19  10 3.19   1 3.19   7 3.19
  33  0.108  0.889  0.235-  12 3.07   2 3.10   8 3.14  45 3.15  29 3.15  11 3.15   9 3.15  31 3.18
                            43 3.19  39 3.22  35 3.23   3 3.60
  34  0.444  0.222  0.080-  11 3.12  14 3.13  23 3.15  38 3.19  40 3.19  32 3.19  42 3.19  28 3.19
                            36 3.19  22 3.19  10 3.19  13 3.19
  35  0.448  0.227  0.236-  12 3.06  23 3.12  43 3.14  41 3.15  15 3.15  14 3.15  11 3.17  37 3.18
                            29 3.19  39 3.23  33 3.23  24 3.54
  36  0.444  0.556  0.080-  14 3.13  26 3.13  17 3.15  42 3.19  38 3.19  44 3.19  30 3.19  28 3.19
                            34 3.19  25 3.19  13 3.19  16 3.19
  37  0.442  0.556  0.235-  27 3.07  17 3.10  14 3.13  31 3.15  39 3.15  26 3.15  15 3.16  35 3.18
                            29 3.19  43 3.22  45 3.23  18 3.61
  38  0.444  0.889  0.080-  20 3.13  11 3.13  17 3.14  40 3.19  34 3.19  44 3.19  36 3.19  30 3.19
                            32 3.19  19 3.19  16 3.19  10 3.19
  39  0.444  0.886  0.236-  12 3.07  17 3.12  21 3.13  31 3.14  37 3.15  20 3.16  11 3.17  45 3.19
                            41 3.19  33 3.22  35 3.23  18 3.57
  40  0.778  0.222  0.080-  20 3.13   5 3.13  23 3.15  38 3.19  34 3.19  44 3.19  28 3.19  30 3.19
                            42 3.19   4 3.19  19 3.19  22 3.19
  41  0.776  0.223  0.235-   6 3.09  23 3.10  21 3.14  20 3.14  43 3.14   5 3.15  35 3.15  45 3.18
                            39 3.19  29 3.22  31 3.22  24 3.60
  42  0.778  0.556  0.080-   8 3.13  26 3.13  23 3.15  36 3.19  44 3.19  30 3.19  32 3.19  34 3.19
                            40 3.19  25 3.19   7 3.19  22 3.19
  43  0.778  0.553  0.236-  27 3.07  23 3.12  35 3.14  41 3.14   9 3.14   8 3.15  26 3.17  33 3.19
                            31 3.19  37 3.22  45 3.23  24 3.57
  44  0.778  0.889  0.080-  26 3.12  20 3.13   2 3.15  28 3.19  40 3.19  42 3.19  32 3.19  38 3.19
                            36 3.19   1 3.19  19 3.19  25 3.19
  45  0.781  0.893  0.236-  27 3.06   2 3.12  29 3.14  21 3.14  33 3.15  20 3.15  26 3.17  41 3.18
                            39 3.19  43 3.23  37 3.23   3 3.55
  46  0.982  0.985  0.396-  53 0.99  52 0.99   3 2.17
  47  0.250  0.924  0.414-  54 0.98  55 1.00
  48  0.901  0.237  0.414-  56 0.98  57 1.00
  49  0.650  0.323  0.396-  59 0.99  58 0.99  24 2.17
  50  0.589  0.591  0.414-  60 0.98  61 1.00
  51  0.331  0.669  0.396-  63 0.99  62 0.99  18 2.15
  52  0.966  0.068  0.410-  46 0.99
  53  0.070  0.978  0.410-  46 0.99
  54  0.351  0.028  0.413-  47 0.98
  55  0.224  0.898  0.384-  47 1.00
  56  0.004  0.340  0.414-  48 0.98
  57  0.876  0.214  0.384-  48 1.00
  58  0.642  0.412  0.410-  49 0.99
  59  0.733  0.308  0.410-  49 0.99
  60  0.693  0.692  0.413-  50 0.98
  61  0.560  0.565  0.384-  50 1.00
  62  0.318  0.754  0.410-  51 0.99
  63  0.416  0.658  0.410-  51 0.99
 
  LATTYP: Found a hexagonal cell.
 ALAT       =     9.5557527542
 C/A-ratio  =     3.4141837076
  
  Lattice vectors:
  
 A1 = (   9.5557527542,   0.0000000000,   0.0000000000)
 A2 = (  -4.7778763771,   8.2755246374,   0.0000000000)
 A3 = (   0.0000000000,   0.0000000000,  32.6250953674)


Analysis of symmetry for initial positions (statically):
=====================================================================
 Subroutine PRICEL returns:
 Original cell was already a primitive cell.
 

 Routine SETGRP: Setting up the symmetry group for a 
 hexagonal supercell.


 Subroutine GETGRP returns: Found  1 space group operations
 (whereof  1 operations were pure point group operations)
 out of a pool of 24 trial point group operations.


The static configuration has the point symmetry C_1 .


Analysis of symmetry for dynamics (positions and initial velocities):
=====================================================================
 Subroutine PRICEL returns:
 Original cell was already a primitive cell.
 

 Routine SETGRP: Setting up the symmetry group for a 
 hexagonal supercell.


 Subroutine GETGRP returns: Found  1 space group operations
 (whereof  1 operations were pure point group operations)
 out of a pool of 24 trial point group operations.


The dynamic configuration has the point symmetry C_1 .


Analysis of constrained symmetry for selective dynamics:
=====================================================================
 Subroutine PRICEL returns:
 Original cell was already a primitive cell.
 

 Routine SETGRP: Setting up the symmetry group for a 
 hexagonal supercell.


 Subroutine GETGRP returns: Found  1 space group operations
 (whereof  1 operations were pure point group operations)
 out of a pool of 24 trial point group operations.


The constrained configuration has the point symmetry C_1 .


 Subroutine INISYM returns: Found  1 space group operations
 (whereof  1 operations are pure point group operations),
 and found     1 'primitive' translations

 
 
 KPOINTS: Auto                                    

Automatic generation of k-mesh.
Space group operators:
 irot       det(A)        alpha          n_x          n_y          n_z        tau_x        tau_y        tau_z
    1     1.000000     0.000000     1.000000     0.000000     0.000000     0.000000     0.000000     0.000000
 
 Subroutine IBZKPT returns following result:
 ===========================================
 
 Found      5 irreducible k-points:
 
 Following reciprocal coordinates:
            Coordinates               Weight
  0.000000  0.000000  0.000000      1.000000
  0.333333 -0.000000  0.000000      2.000000
  0.000000  0.333333  0.000000      2.000000
  0.333333  0.333333  0.000000      2.000000
 -0.333333  0.333333  0.000000      2.000000
 
 Following cartesian coordinates:
            Coordinates               Weight
  0.000000  0.000000  0.000000      1.000000
  0.034883  0.020140  0.000000      2.000000
  0.000000  0.040279  0.000000      2.000000
  0.034883  0.060419  0.000000      2.000000
 -0.034883  0.020140  0.000000      2.000000
 
 TETIRR: Found     24 inequivalent tetrahedra from       54


--------------------------------------------------------------------------------------------------------




 Dimension of arrays:
   k-points           NKPTS =      5   k-points in BZ     NKDIM =      5   number of bands    NBANDS=    102
   number of dos      NEDOS =    301   number of ions     NIONS =     63
   non local maximal  LDIM  =      5   non local SUM 2l+1 LMDIM =     13
   total plane-waves  NPLWV = ******
   max r-space proj   IRMAX =   4509   max aug-charges    IRDMAX=  21536
   dimension x,y,z NGX =    72 NGY =   72 NGZ =  250
   dimension x,y,z NGXF=   144 NGYF=  144 NGZF=  500
   support grid    NGXF=   144 NGYF=  144 NGZF=  500
   ions per type =              45   6  12
   NGX,Y,Z   is equivalent  to a cutoff of  12.53, 12.53, 12.74 a.u.
   NGXF,Y,Z  is equivalent  to a cutoff of  25.05, 25.05, 25.48 a.u.

 SYSTEM =  Mg_slab_in_a_box                        
 POSCAR =  Mg   O    H                             

 Startparameter for this run:
   NWRITE =      2    write-flag & timer
   PREC   = accura    normal or accurate (medium, high low for compatibility)
   ISTART =      0    job   : 0-new  1-cont  2-samecut
   ICHARG =      2    charge: 1-file 2-atom 10-const
   ISPIN  =      1    spin polarized calculation?
   LNONCOLLINEAR =      F non collinear calculations
   LSORBIT =      F    spin-orbit coupling
   INIWAV =      1    electr: 0-lowe 1-rand  2-diag
   LASPH  =      T    aspherical Exc in radial PAW
   METAGGA=      F    non-selfconsistent MetaGGA calc.

 Electronic Relaxation 1
   ENCUT  =  520.0 eV  38.22 Ry    6.18 a.u.  17.77 17.77 60.66*2*pi/ulx,y,z
   ENINI  =  520.0     initial cutoff
   ENAUG  =  605.4 eV  augmentation charge cutoff
   NELM   =    300;   NELMIN=  6; NELMDL=-12     # of ELM steps 
   EDIFF  = 0.5E-05   stopping-criterion for ELM
   LREAL  =      T    real-space projection
   NLSPLINE    = F    spline interpolate recip. space projectors
   LCOMPAT=      F    compatible to vasp.4.4
   GGA_COMPAT  = T    GGA compatible to vasp.4.4-vasp.4.6
   LMAXPAW     = -100 max onsite density
   LMAXMIX     =    2 max onsite mixed and CHGCAR
   VOSKOWN=      0    Vosko Wilk Nusair interpolation
   ROPT   =   -0.00025  -0.00025  -0.00025
 Ionic relaxation
   EDIFFG = 0.5E-04   stopping-criterion for IOM
   NSW    =      0    number of steps for IOM
   NBLOCK =      1;   KBLOCK =      1    inner block; outer block 
   IBRION =     -1    ionic relax: 0-MD 1-quasi-New 2-CG
   NFREE  =      0    steps in history (QN), initial steepest desc. (CG)
   ISIF   =      2    stress and relaxation
   IWAVPR =     10    prediction:  0-non 1-charg 2-wave 3-comb
   ISYM   =      2    0-nonsym 1-usesym 2-fastsym
   LCORR  =      T    Harris-Foulkes like correction to forces

   POTIM  = 0.5000    time-step for ionic-motion
   TEIN   =    0.0    initial temperature
   TEBEG  =    0.0;   TEEND  =   0.0 temperature during run
   SMASS  =  -3.00    Nose mass-parameter (am)
   estimated Nose-frequenzy (Omega)   =  0.10E-29 period in steps =****** mass=  -0.209E-26a.u.
   SCALEE = 1.0000    scale energy and forces
   NPACO  =    256;   APACO  = 16.0  distance and # of slots for P.C.
   PSTRESS=    0.0 pullay stress

  Mass of Ions in am
   POMASS =  24.30 16.00  1.00
  Ionic Valenz
   ZVAL   =   2.00  6.00  1.00
  Atomic Wigner-Seitz radii
   RWIGS  =  -1.00 -1.00 -1.00
  virtual crystal weights 
   VCA    =   1.00  1.00  1.00
   NELECT =     138.0000    total number of electrons
   NUPDOWN=      -1.0000    fix difference up-down

 DOS related values:
   EMIN   =  10.00;   EMAX   =-10.00  energy-range for DOS
   EFERMI =   0.00
   ISMEAR =    -5;   SIGMA  =   0.20  broadening in eV -4-tet -1-fermi 0-gaus

 Electronic relaxation 2 (details)
   IALGO  =     48    algorithm
   LDIAG  =      T    sub-space diagonalisation (order eigenvalues)
   LSUBROT=      F    optimize rotation matrix (better conditioning)
   TURBO    =      0    0=normal 1=particle mesh
   IRESTART =      0    0=no restart 2=restart with 2 vectors
   NREBOOT  =      0    no. of reboots
   NMIN     =      0    reboot dimension
   EREF     =   0.00    reference energy to select bands
   IMIX   =      4    mixing-type and parameters
     AMIX     =   0.40;   BMIX     =  1.00
     AMIX_MAG =   1.60;   BMIX_MAG =  1.00
     AMIN     =   0.10
     WC   =   100.;   INIMIX=   1;  MIXPRE=   1;  MAXMIX= -45

 Intra band minimization:
   WEIMIN = 0.0000     energy-eigenvalue tresh-hold
   EBREAK =  0.12E-07  absolut break condition
   DEPER  =   0.30     relativ break condition  

   TIME   =   0.40     timestep for ELM

  volume/ion in A,a.u.               =      40.95       276.36
  Fermi-wavevector in a.u.,A,eV,Ry     =   0.616828  1.165635  5.176694  0.380476
  Thomas-Fermi vector in A             =   1.674695
 
 Write flags
   LWAVE        =      F    write WAVECAR
   LDOWNSAMPLE  =      F    k-point downsampling of WAVECAR
   LCHARG       =      T    write CHGCAR
   LVTOT        =      F    write LOCPOT, total local potential
   LVHAR        =      T    write LOCPOT, Hartree potential only
   LELF         =      F    write electronic localiz. function (ELF)
   LORBIT       =      0    0 simple, 1 ext, 2 COOP (PROOUT), +10 PAW based schemes


 Dipole corrections
   LMONO  =      F    monopole corrections only (constant potential shift)
   LDIPOL =      T    correct potential (dipole corrections)
   IDIPOL =      3    1-x, 2-y, 3-z, 4-all directions 
   EPSILON=  1.0000000 bulk dielectric constant

 Exchange correlation treatment:
   GGA     =    BO    GGA type
   LEXCH   =    42    internal setting for exchange type
   VOSKOWN=      0    Vosko Wilk Nusair interpolation
   LHFCALC =     F    Hartree Fock is set to
   LHFONE  =     F    Hartree Fock one center treatment
   AEXX    =    0.0000 exact exchange contribution

 vdW DFT:
   LUSE_VDW   =     T    switch on vdW DFT
   Zab_VDW    =-.8491    correlation parameter
   PARAM1     =0.1833
   PARAM2     =0.2200
   PARAM3     =0.0000
   -- rVV10 --
   BPARAM     = 6.3000
   CPARAM     = 0.0093

 Linear response parameters
   LEPSILON=     F    determine dielectric tensor
   LRPA    =     F    only Hartree local field effects (RPA)
   LNABLA  =     F    use nabla operator in PAW spheres
   LVEL    =     F    velocity operator in full k-point grid
   LINTERFAST=   F  fast interpolation
   KINTER  =     0    interpolate to denser k-point grid
   CSHIFT  =0.1000    complex shift for real part using Kramers Kronig
   OMEGAMAX=  -1.0    maximum frequency
   DEG_THRESHOLD= 0.2000000E-02 threshold for treating states as degnerate
   RTIME   =   -0.100 relaxation time in fs
  (WPLASMAI=    0.000 imaginary part of plasma frequency in eV, 0.658/RTIME)
   DFIELD  = 0.0000000 0.0000000 0.0000000 field for delta impulse in time
 
 Orbital magnetization related:
   ORBITALMAG=     F  switch on orbital magnetization
   LCHIMAG   =     F  perturbation theory with respect to B field
   DQ        =  0.001000  dq finite difference perturbation B field
   LLRAUG    =     F  two centre corrections for induced B field



--------------------------------------------------------------------------------------------------------


 Static calculation
 charge density and potential will be updated during run
 non-spin polarized calculation
 RMM-DIIS sequential band-by-band
 perform sub-space diagonalisation
    before iterative eigenvector-optimisation
 modified Broyden-mixing scheme, WC =      100.0
 initial mixing is a Kerker type mixing with AMIX =  0.4000 and BMIX =      1.0000
 Hartree-type preconditioning will be used
 using additional bands           33
 real space projection scheme for non local part
 use partial core corrections
 calculate Harris-corrections to forces 
   (improved forces if not selfconsistent)
 use gradient corrections 
 use of overlap-Matrix (Vanderbilt PP)
 Fermi weights with tetrahedron method with Bloechl corrections


--------------------------------------------------------------------------------------------------------


  energy-cutoff  :      520.00
  volume of cell :     2579.96
      direct lattice vectors                 reciprocal lattice vectors
     9.555752754  0.000000000  0.000000000     0.104649003  0.060419130  0.000000000
    -4.777876377  8.275524637  0.000000000     0.000000000  0.120838260  0.000000000
     0.000000000  0.000000000 32.625095367     0.000000000  0.000000000  0.030651251

  length of vectors
     9.555752754  9.555752754 32.625095367     0.120838260  0.120838260  0.030651251


 
 k-points in units of 2pi/SCALE and weight: Auto                                    
   0.00000000  0.00000000  0.00000000       0.111
   0.03488300  0.02013971  0.00000000       0.222
   0.00000000  0.04027942  0.00000000       0.222
   0.03488300  0.06041913  0.00000000       0.222
  -0.03488300  0.02013971  0.00000000       0.222
 
 k-points in reciprocal lattice and weights: Auto                                    
   0.00000000  0.00000000  0.00000000       0.111
   0.33333333 -0.00000000  0.00000000       0.222
   0.00000000  0.33333333  0.00000000       0.222
   0.33333333  0.33333333  0.00000000       0.222
  -0.33333333  0.33333333  0.00000000       0.222
 
 position of ions in fractional coordinates (direct lattice) 
   0.00000000  0.00000000  0.00000000
   0.99986271  0.00069408  0.15813366
   0.99565589  0.99826722  0.32990334
   0.00000001  0.33333336  0.00000000
   0.00043562  0.33417045  0.15742312
   0.99845171  0.33486056  0.31113889
   0.00000002  0.66666672  0.00000000
   0.99974479  0.66682125  0.15732061
   0.99996357  0.66895107  0.31401556
   0.33333334  0.00000000  0.00000000
   0.33372568  0.00087318  0.15738986
   0.33098362  0.00115439  0.31038799
   0.33333335  0.33333336  0.00000000
   0.33293059  0.33337801  0.15735024
   0.33259834  0.33631717  0.31415104
   0.33333336  0.66666672  0.00000000
   0.33311481  0.66733658  0.15812948
   0.33067850  0.66717331  0.33032470
   0.66666668  0.00000000  0.00000000
   0.66635906  0.00023531  0.15732834
   0.66684493  0.00314824  0.31356754
   0.66666668  0.33333336  0.00000000
   0.66642428  0.33391154  0.15813953
   0.66220121  0.33246963  0.32995573
   0.66666670  0.66666672  0.00000000
   0.66699610  0.66746485  0.15734925
   0.66449640  0.66731831  0.31024038
   0.11111113  0.22222222  0.07982145
   0.11041420  0.21966363  0.23616136
   0.11111114  0.55555561  0.07982145
   0.11420642  0.55939839  0.23608610
   0.11111116  0.88888894  0.07982145
   0.10829009  0.88917709  0.23512000
   0.44444450  0.22222222  0.07982145
   0.44758503  0.22657009  0.23605356
   0.44444450  0.55555561  0.07982145
   0.44159963  0.55588411  0.23508262
   0.44444451  0.88888894  0.07982145
   0.44396795  0.88648407  0.23594334
   0.77777779  0.22222222  0.07982145
   0.77559572  0.22319408  0.23521751
   0.77777781  0.55555561  0.07982145
   0.77759928  0.55322421  0.23586615
   0.77777784  0.88888894  0.07982145
   0.78071643  0.89278528  0.23584051
   0.98223337  0.98494444  0.39633352
   0.25031233  0.92424825  0.41395488
   0.90102323  0.23736590  0.41400179
   0.65000803  0.32318776  0.39636062
   0.58871995  0.59079394  0.41387033
   0.33052260  0.66856060  0.39635820
   0.96644758  0.06830491  0.41002970
   0.07011234  0.97779007  0.41032800
   0.35139061  0.02849666  0.41318570
   0.22402579  0.89817182  0.38423882
   0.00408656  0.33969024  0.41384498
   0.87597089  0.21441200  0.38408406
   0.64247697  0.41153803  0.40999668
   0.73268989  0.30759156  0.41043187
   0.69274288  0.69206367  0.41268621
   0.55992013  0.56457810  0.38427521
   0.31756957  0.75354560  0.41004790
   0.41606013  0.65769782  0.41039886
 
 position of ions in cartesian coordinates  (Angst):
   0.00000000  0.00000000  0.00000000
   9.55112463  0.00574389  5.15912585
   4.74464415  8.26118494 10.76312782
  -1.59262550  2.75850844  0.00000000
  -1.59246245  2.76543581  5.13594424
   7.94103532  2.77114681 10.15093606
  -3.18525100  5.51701689  0.00000000
   6.36732451  5.51829572  5.13259983
   6.35923909  5.53592106 10.24478775
   3.18525100  0.00000000  0.00000000
   3.18482809  0.00722605  5.13485920
   3.15728211  0.00955319 10.12643776
   1.59262550  2.75850844  0.00000000
   1.58856353  2.75887790  5.13356655
   1.57134563  2.78320104 10.24920779
  -0.00000001  5.51701689  0.00000000
  -0.00528888  5.52256027  5.15898946
  -0.02778964  5.52120915 10.77687500
   6.37050200  0.00000000  0.00000000
   6.36643817  0.00194729  5.13285196
   6.35716341  0.02605333 10.23017076
   4.77787638  2.75850844  0.00000000
   4.77279760  2.76329316  5.15931716
   4.73933223  2.75136065 10.76483731
   3.18525100  5.51701689  0.00000000
   3.18458525  5.52362181  5.13353445
   3.16139894  5.52240910 10.12162198
   0.00000017  1.83900547  2.60418248
   0.00556516  1.81783177  7.70478701
  -1.59262550  4.59751415  2.60418248
  -1.58140801  4.62931514  7.70233146
  -3.18525076  7.35602236  2.60418248
  -3.21358492  7.35840693  7.67081249
   3.18525147  1.83900547  2.60418248
   3.19448800  1.87498638  7.70126975
   1.59262574  4.59751415  2.60418248
   1.56387131  4.60023263  7.66959281
   0.00000039  7.35602236  2.60418248
   0.00693670  7.33612074  7.69767387
   6.37050200  1.83900547  2.60418248
   6.34500718  1.84704813  7.67399372
   4.77787638  4.59751415  2.60418248
   4.78730958  4.57822059  7.69515571
   3.18525124  7.35602236  2.60418248
   3.19471548  7.38826659  7.69431927
   4.68003641  8.15093201 12.93041879
  -2.02402114  7.64863915 13.50531757
   7.47585026  1.96432736 13.50684774
   4.66716487  2.67454824 12.93130311
   2.80292186  4.88912983 13.50255909
  -0.03590767  5.53268970 12.93122420
   8.90878171  0.56525900 13.37725803
  -4.00178395  8.09172585 13.38699000
   3.22164822  0.23582484 13.48022291
  -2.15061887  7.43284305 12.53582812
  -1.58394787  2.81111498 13.50173209
   7.34612720  1.77437176 12.53077905
   4.17307323  3.40569314 13.37618067
   5.53176896  2.54548150 13.39037902
   3.31308504  5.72718995 13.46392704
   2.65297394  4.67217998 12.53701530
  -0.56573139  6.23598519 13.37785178
   0.83336884  5.44279451 13.38930192
 


--------------------------------------------------------------------------------------------------------


 k-point  1 :   0.0000 0.0000 0.0000  plane waves:   69403
 k-point  2 :   0.3333-0.0000 0.0000  plane waves:   69509
 k-point  3 :   0.0000 0.3333 0.0000  plane waves:   69509
 k-point  4 :   0.3333 0.3333 0.0000  plane waves:   69474
 k-point  5 :  -0.3333 0.3333 0.0000  plane waves:   69509

 maximum and minimum number of plane-waves per node :      2924     2870

 maximum number of plane-waves:     69509
 maximum index in each direction: 
   IXMAX=   18   IYMAX=   17   IZMAX=   60
   IXMIN=  -18   IYMIN=  -18   IZMIN=  -60


 real space projection operators:
  total allocation   :      22581.97 KBytes
  max/ min on nodes  :       1300.94        517.72


 parallel 3D FFT for wavefunctions:
    minimum data exchange during FFTs selected (reduces bandwidth)
 parallel 3D FFT for charge:
    minimum data exchange during FFTs selected (reduces bandwidth)


 total amount of memory used by VASP MPI-rank0    62217. kBytes
=======================================================================

   base      :      30000. kBytes
   nonlr-proj:       6314. kBytes
   fftplans  :       6459. kBytes
   grid      :      11407. kBytes
   one-center:         24. kBytes
   wavefun   :       8013. kBytes
 
     INWAV:  cpu time    0.0002: real time    0.0014
 Broyden mixing: mesh for mixing (old mesh)
   NGX = 35   NGY = 35   NGZ =121
  (NGX  =144   NGY  =144   NGZ  =500)
  gives a total of 148225 points

 initial charge density was supplied:
 charge density of overlapping atoms calculated
 number of electron     138.0000000 magnetization 
 keeping initial charge density in first step


--------------------------------------------------------------------------------------------------------


 Maximum index for non-local projection operator          297
 Maximum index for augmentation-charges          837 (set IRDMAX)


--------------------------------------------------------------------------------------------------------


 First call to EWALD:  gamma=   0.129
 Maximum number of real-space cells 4x 4x 1
 Maximum number of reciprocal cells 2x 2x 6

    FEWALD:  cpu time    0.0036: real time    0.0036


--------------------------------------- Iteration      1(   1)  ---------------------------------------


vdW kernel read from vdw_kernel.bindat
  0.0000  0.2424  0.5071  0.7962  1.1119  1.4567  1.8333  2.2446  2.6937  3.1842
  3.7199  4.3049  4.9438  5.6415  6.4036  7.2358  8.1446  9.1372 10.2212 11.4050
 12.6979 14.1099 15.6519 17.3360 19.1751 21.1837 23.3773 25.7729 28.3892 31.2465
 34.3669 37.7748 41.4965 45.5611 50.0000
 
    POTLOK:  cpu time    7.1699: real time    8.0520
    SETDIJ:  cpu time    0.1357: real time    0.1361
    EDDIAG:  cpu time    1.4359: real time    1.4367
  RMM-DIIS:  cpu time    1.4891: real time    1.4893
    ORTHCH:  cpu time    0.4824: real time    0.4825
 BZINTS: Fermi energy:  9.572340;138.000000 electrons
         Band energy: 213.708788;  BLOECHL correction: -0.139542
       DOS:  cpu time    0.0046: real time    0.0046
    --------------------------------------------
      LOOP:  cpu time   10.7176: real time   11.6011

 eigenvalue-minimisations  :   510
 total energy-change (2. order) : 0.1244064E+04  (-0.2791302E+04)
 number of electron     138.0000000 magnetization 
 augmentation part      138.0000000 magnetization 

 DIPCOR: dipole corrections for dipol
 direction  3 min pos   356,
 dipolmoment           0.000000      0.000000     -0.000403 electrons x Angstroem
 Tr[quadrupol]     -1901.620260

 energy correction for charged system         0.000000 eV
 dipol+quadrupol energy correction           -0.000000 eV
 added-field ion interaction          0.004333 eV  (added to PSCEN)


 Free energy of the ion-electron system (eV)
  ---------------------------------------------------
  alpha Z        PSCENC =        63.16539638
  Ewald energy   TEWEN  =     12491.37099164
  -Hartree energ DENC   =    -15717.16954573
  -exchange      EXHF   =         0.00000000
  -V(xc)+E(xc)   XCENC  =     -2051.14533076
  PAW double counting   =      5135.15659847    -2719.01140655
  entropy T*S    EENTRO =         0.00000000
  eigenvalues    EBANDS =       213.70878847
  atomic energy  EATOM  =      3827.98814510
  Solvation  Ediel_sol  =         0.00000000
  ---------------------------------------------------
  free energy    TOTEN  =      1244.06363702 eV

  energy without entropy =     1244.06363702  energy(sigma->0) =     1244.06363702


--------------------------------------------------------------------------------------------------------




--------------------------------------- Iteration      1(   2)  ---------------------------------------


    EDDIAG:  cpu time    1.4744: real time    1.4950
  RMM-DIIS:  cpu time    1.4820: real time    1.4821
    ORTHCH:  cpu time    0.5290: real time    0.5290
 BZINTS: Fermi energy:  2.135617;138.000000 electrons
         Band energy:-484.695067;  BLOECHL correction: -0.256664
       DOS:  cpu time    0.0035: real time    0.0035
    --------------------------------------------
      LOOP:  cpu time    3.4889: real time    3.5096

 eigenvalue-minimisations  :   510
 total energy-change (2. order) :-0.6984039E+03  (-0.7553622E+03)
 number of electron     138.0000000 magnetization 
 augmentation part      138.0000000 magnetization 

 DIPCOR: dipole corrections for dipol
 direction  3 min pos   356,
 dipolmoment           0.000000      0.000000     -0.000403 electrons x Angstroem
 Tr[quadrupol]     -1901.620260

 energy correction for charged system         0.000000 eV
 dipol+quadrupol energy correction           -0.000000 eV
 added-field ion interaction          0.004333 eV  (added to PSCEN)


 Free energy of the ion-electron system (eV)
  ---------------------------------------------------
  alpha Z        PSCENC =        63.16539638
  Ewald energy   TEWEN  =     12491.37099164
  -Hartree energ DENC   =    -15717.16954573
  -exchange      EXHF   =         0.00000000
  -V(xc)+E(xc)   XCENC  =     -2051.14533076
  PAW double counting   =      5135.15659847    -2719.01140655
  entropy T*S    EENTRO =         0.00000000
  eigenvalues    EBANDS =      -484.69506665
  atomic energy  EATOM  =      3827.98814510
  Solvation  Ediel_sol  =         0.00000000
  ---------------------------------------------------
  free energy    TOTEN  =       545.65978191 eV

  energy without entropy =      545.65978191  energy(sigma->0) =      545.65978191


--------------------------------------------------------------------------------------------------------




--------------------------------------- Iteration      1(   3)  ---------------------------------------


    EDDIAG:  cpu time    1.4552: real time    1.4777
  RMM-DIIS:  cpu time    1.4783: real time    1.4786
    ORTHCH:  cpu time    0.5282: real time    0.5283
 BZINTS: Fermi energy:  0.321767;138.000000 electrons
         Band energy:-719.513282;  BLOECHL correction: -0.496630
       DOS:  cpu time    0.0037: real time    0.0037
    --------------------------------------------
      LOOP:  cpu time    3.4654: real time    3.4882

 eigenvalue-minimisations  :   510
 total energy-change (2. order) :-0.2348182E+03  (-0.2990928E+03)
 number of electron     138.0000000 magnetization 
 augmentation part      138.0000000 magnetization 

 DIPCOR: dipole corrections for dipol
 direction  3 min pos   356,
 dipolmoment           0.000000      0.000000     -0.000403 electrons x Angstroem
 Tr[quadrupol]     -1901.620260

 energy correction for charged system         0.000000 eV
 dipol+quadrupol energy correction           -0.000000 eV
 added-field ion interaction          0.004333 eV  (added to PSCEN)


 Free energy of the ion-electron system (eV)
  ---------------------------------------------------
  alpha Z        PSCENC =        63.16539638
  Ewald energy   TEWEN  =     12491.37099164
  -Hartree energ DENC   =    -15717.16954573
  -exchange      EXHF   =         0.00000000
  -V(xc)+E(xc)   XCENC  =     -2051.14533076
  PAW double counting   =      5135.15659847    -2719.01140655
  entropy T*S    EENTRO =         0.00000000
  eigenvalues    EBANDS =      -719.51328225
  atomic energy  EATOM  =      3827.98814510
  Solvation  Ediel_sol  =         0.00000000
  ---------------------------------------------------
  free energy    TOTEN  =       310.84156631 eV

  energy without entropy =      310.84156631  energy(sigma->0) =      310.84156631


--------------------------------------------------------------------------------------------------------




--------------------------------------- Iteration      1(   4)  ---------------------------------------


    EDDIAG:  cpu time    1.5766: real time    1.5937
  RMM-DIIS:  cpu time    1.5246: real time    1.5249
    ORTHCH:  cpu time    0.5963: real time    0.5963
 BZINTS: Fermi energy: -0.741206;138.000000 electrons
         Band energy:-895.884806;  BLOECHL correction: -0.112021
       DOS:  cpu time    0.0043: real time    0.0043
    --------------------------------------------
      LOOP:  cpu time    3.7017: real time    3.7192

 eigenvalue-minimisations  :   510
 total energy-change (2. order) :-0.1763715E+03  (-0.1515686E+03)
 number of electron     138.0000000 magnetization 
 augmentation part      138.0000000 magnetization 

 DIPCOR: dipole corrections for dipol
 direction  3 min pos   356,
 dipolmoment           0.000000      0.000000     -0.000403 electrons x Angstroem
 Tr[quadrupol]     -1901.620260

 energy correction for charged system         0.000000 eV
 dipol+quadrupol energy correction           -0.000000 eV
 added-field ion interaction          0.004333 eV  (added to PSCEN)


 Free energy of the ion-electron system (eV)
  ---------------------------------------------------
  alpha Z        PSCENC =        63.16539638
  Ewald energy   TEWEN  =     12491.37099164
  -Hartree energ DENC   =    -15717.16954573
  -exchange      EXHF   =         0.00000000
  -V(xc)+E(xc)   XCENC  =     -2051.14533076
  PAW double counting   =      5135.15659847    -2719.01140655
  entropy T*S    EENTRO =         0.00000000
  eigenvalues    EBANDS =      -895.88480559
  atomic energy  EATOM  =      3827.98814510
  Solvation  Ediel_sol  =         0.00000000
  ---------------------------------------------------
  free energy    TOTEN  =       134.47004297 eV

  energy without entropy =      134.47004297  energy(sigma->0) =      134.47004297


--------------------------------------------------------------------------------------------------------




--------------------------------------- Iteration      1(   5)  ---------------------------------------


    EDDIAG:  cpu time    1.2815: real time    1.3016
  RMM-DIIS:  cpu time    1.3826: real time    1.3828
    ORTHCH:  cpu time    0.5628: real time    0.5629
 BZINTS: Fermi energy: -1.227908;138.000000 electrons
         Band energy:***********;  BLOECHL correction: -0.090764
       DOS:  cpu time    0.0034: real time    0.0034
    --------------------------------------------
      LOOP:  cpu time    3.2303: real time    3.2506

 eigenvalue-minimisations  :   510
 total energy-change (2. order) :-0.1169935E+03  (-0.9364277E+02)
 number of electron     138.0000000 magnetization 
 augmentation part      138.0000000 magnetization 

 DIPCOR: dipole corrections for dipol
 direction  3 min pos   356,
 dipolmoment           0.000000      0.000000     -0.000403 electrons x Angstroem
 Tr[quadrupol]     -1901.620260

 energy correction for charged system         0.000000 eV
 dipol+quadrupol energy correction           -0.000000 eV
 added-field ion interaction          0.004333 eV  (added to PSCEN)


 Free energy of the ion-electron system (eV)
  ---------------------------------------------------
  alpha Z        PSCENC =        63.16539638
  Ewald energy   TEWEN  =     12491.37099164
  -Hartree energ DENC   =    -15717.16954573
  -exchange      EXHF   =         0.00000000
  -V(xc)+E(xc)   XCENC  =     -2051.14533076
  PAW double counting   =      5135.15659847    -2719.01140655
  entropy T*S    EENTRO =         0.00000000
  eigenvalues    EBANDS =     -1012.87835334
  atomic energy  EATOM  =      3827.98814510
  Solvation  Ediel_sol  =         0.00000000
  ---------------------------------------------------
  free energy    TOTEN  =        17.47649522 eV

  energy without entropy =       17.47649522  energy(sigma->0) =       17.47649522


--------------------------------------------------------------------------------------------------------




--------------------------------------- Iteration      1(   6)  ---------------------------------------


    EDDIAG:  cpu time    1.9374: real time    1.9541
  RMM-DIIS:  cpu time    1.9844: real time    1.9846
    ORTHCH:  cpu time    0.8707: real time    0.8707
 BZINTS: Fermi energy: -1.361385;138.000000 electrons
         Band energy:***********;  BLOECHL correction: -0.035935
       DOS:  cpu time    0.0047: real time    0.0047
    --------------------------------------------
      LOOP:  cpu time    4.7971: real time    4.8142

 eigenvalue-minimisations  :   510
 total energy-change (2. order) :-0.6226276E+02  (-0.4782378E+02)
 number of electron     138.0000000 magnetization 
 augmentation part      138.0000000 magnetization 

 DIPCOR: dipole corrections for dipol
 direction  3 min pos   356,
 dipolmoment           0.000000      0.000000     -0.000403 electrons x Angstroem
 Tr[quadrupol]     -1901.620260

 energy correction for charged system         0.000000 eV
 dipol+quadrupol energy correction           -0.000000 eV
 added-field ion interaction          0.004333 eV  (added to PSCEN)


 Free energy of the ion-electron system (eV)
  ---------------------------------------------------
  alpha Z        PSCENC =        63.16539638
  Ewald energy   TEWEN  =     12491.37099164
  -Hartree energ DENC   =    -15717.16954573
  -exchange      EXHF   =         0.00000000
  -V(xc)+E(xc)   XCENC  =     -2051.14533076
  PAW double counting   =      5135.15659847    -2719.01140655
  entropy T*S    EENTRO =         0.00000000
  eigenvalues    EBANDS =     -1075.14111150
  atomic energy  EATOM  =      3827.98814510
  Solvation  Ediel_sol  =         0.00000000
  ---------------------------------------------------
  free energy    TOTEN  =       -44.78626294 eV

  energy without entropy =      -44.78626294  energy(sigma->0) =      -44.78626294


--------------------------------------------------------------------------------------------------------




--------------------------------------- Iteration      1(   7)  ---------------------------------------


    EDDIAG:  cpu time    2.4061: real time    2.4283
  RMM-DIIS:  cpu time    2.0792: real time    2.0794
    ORTHCH:  cpu time    0.9221: real time    0.9222
 BZINTS: Fermi energy: -1.414447;138.000000 electrons
         Band energy:***********;  BLOECHL correction: -0.063239
       DOS:  cpu time    0.0042: real time    0.0042
    --------------------------------------------
      LOOP:  cpu time    5.4116: real time    5.4341

 eigenvalue-minimisations  :   510
 total energy-change (2. order) :-0.2469883E+02  (-0.1889768E+02)
 number of electron     138.0000000 magnetization 
 augmentation part      138.0000000 magnetization 

 DIPCOR: dipole corrections for dipol
 direction  3 min pos   356,
 dipolmoment           0.000000      0.000000     -0.000403 electrons x Angstroem
 Tr[quadrupol]     -1901.620260

 energy correction for charged system         0.000000 eV
 dipol+quadrupol energy correction           -0.000000 eV
 added-field ion interaction          0.004333 eV  (added to PSCEN)


 Free energy of the ion-electron system (eV)
  ---------------------------------------------------
  alpha Z        PSCENC =        63.16539638
  Ewald energy   TEWEN  =     12491.37099164
  -Hartree energ DENC   =    -15717.16954573
  -exchange      EXHF   =         0.00000000
  -V(xc)+E(xc)   XCENC  =     -2051.14533076
  PAW double counting   =      5135.15659847    -2719.01140655
  entropy T*S    EENTRO =         0.00000000
  eigenvalues    EBANDS =     -1099.83994251
  atomic energy  EATOM  =      3827.98814510
  Solvation  Ediel_sol  =         0.00000000
  ---------------------------------------------------
  free energy    TOTEN  =       -69.48509395 eV

  energy without entropy =      -69.48509395  energy(sigma->0) =      -69.48509395


--------------------------------------------------------------------------------------------------------




--------------------------------------- Iteration      1(   8)  ---------------------------------------


    EDDIAG:  cpu time    2.4380: real time    2.4581
  RMM-DIIS:  cpu time    2.0998: real time    2.1000
    ORTHCH:  cpu time    0.8972: real time    0.8973
 BZINTS: Fermi energy: -1.442723;138.000000 electrons
         Band energy:***********;  BLOECHL correction: -0.086517
       DOS:  cpu time    0.0046: real time    0.0046
    --------------------------------------------
      LOOP:  cpu time    5.4396: real time    5.4600

 eigenvalue-minimisations  :   510
 total energy-change (2. order) :-0.6420428E+01  (-0.5447700E+01)
 number of electron     138.0000000 magnetization 
 augmentation part      138.0000000 magnetization 

 DIPCOR: dipole corrections for dipol
 direction  3 min pos   356,
 dipolmoment           0.000000      0.000000     -0.000403 electrons x Angstroem
 Tr[quadrupol]     -1901.620260

 energy correction for charged system         0.000000 eV
 dipol+quadrupol energy correction           -0.000000 eV
 added-field ion interaction          0.004333 eV  (added to PSCEN)


 Free energy of the ion-electron system (eV)
  ---------------------------------------------------
  alpha Z        PSCENC =        63.16539638
  Ewald energy   TEWEN  =     12491.37099164
  -Hartree energ DENC   =    -15717.16954573
  -exchange      EXHF   =         0.00000000
  -V(xc)+E(xc)   XCENC  =     -2051.14533076
  PAW double counting   =      5135.15659847    -2719.01140655
  entropy T*S    EENTRO =         0.00000000
  eigenvalues    EBANDS =     -1106.26037051
  atomic energy  EATOM  =      3827.98814510
  Solvation  Ediel_sol  =         0.00000000
  ---------------------------------------------------
  free energy    TOTEN  =       -75.90552195 eV

  energy without entropy =      -75.90552195  energy(sigma->0) =      -75.90552195


--------------------------------------------------------------------------------------------------------




--------------------------------------- Iteration      1(   9)  ---------------------------------------


    EDDIAG:  cpu time    2.3992: real time    2.4207
  RMM-DIIS:  cpu time    5.0010: real time    5.0015
    ORTHCH:  cpu time    0.9833: real time    0.9835
 BZINTS: Fermi energy: -1.473018;138.000000 electrons
         Band energy:***********;  BLOECHL correction: -0.105465
       DOS:  cpu time    0.0068: real time    0.0068
    --------------------------------------------
      LOOP:  cpu time    8.3903: real time    8.4124

 eigenvalue-minimisations  :  1487
 total energy-change (2. order) :-0.2157374E+01  (-0.2062528E+01)
 number of electron     138.0000000 magnetization 
 augmentation part      138.0000000 magnetization 

 DIPCOR: dipole corrections for dipol
 direction  3 min pos   356,
 dipolmoment           0.000000      0.000000     -0.000403 electrons x Angstroem
 Tr[quadrupol]     -1901.620260

 energy correction for charged system         0.000000 eV
 dipol+quadrupol energy correction           -0.000000 eV
 added-field ion interaction          0.004333 eV  (added to PSCEN)


 Free energy of the ion-electron system (eV)
  ---------------------------------------------------
  alpha Z        PSCENC =        63.16539638
  Ewald energy   TEWEN  =     12491.37099164
  -Hartree energ DENC   =    -15717.16954573
  -exchange      EXHF   =         0.00000000
  -V(xc)+E(xc)   XCENC  =     -2051.14533076
  PAW double counting   =      5135.15659847    -2719.01140655
  entropy T*S    EENTRO =         0.00000000
  eigenvalues    EBANDS =     -1108.41774497
  atomic energy  EATOM  =      3827.98814510
  Solvation  Ediel_sol  =         0.00000000
  ---------------------------------------------------
  free energy    TOTEN  =       -78.06289641 eV

  energy without entropy =      -78.06289641  energy(sigma->0) =      -78.06289641


--------------------------------------------------------------------------------------------------------




--------------------------------------- Iteration      1(  10)  ---------------------------------------


    EDDIAG:  cpu time    2.4530: real time    2.4755
  RMM-DIIS:  cpu time    5.8127: real time    5.8136
    ORTHCH:  cpu time    0.8839: real time    0.8840
 BZINTS: Fermi energy: -1.474394;138.000000 electrons
         Band energy:***********;  BLOECHL correction: -0.106160
       DOS:  cpu time    0.0030: real time    0.0030
    --------------------------------------------
      LOOP:  cpu time    9.1526: real time    9.1761

 eigenvalue-minimisations  :  1780
 total energy-change (2. order) :-0.3164791E+00  (-0.3219820E+00)
 number of electron     138.0000000 magnetization 
 augmentation part      138.0000000 magnetization 

 DIPCOR: dipole corrections for dipol
 direction  3 min pos   356,
 dipolmoment           0.000000      0.000000     -0.000403 electrons x Angstroem
 Tr[quadrupol]     -1901.620260

 energy correction for charged system         0.000000 eV
 dipol+quadrupol energy correction           -0.000000 eV
 added-field ion interaction          0.004333 eV  (added to PSCEN)


 Free energy of the ion-electron system (eV)
  ---------------------------------------------------
  alpha Z        PSCENC =        63.16539638
  Ewald energy   TEWEN  =     12491.37099164
  -Hartree energ DENC   =    -15717.16954573
  -exchange      EXHF   =         0.00000000
  -V(xc)+E(xc)   XCENC  =     -2051.14533076
  PAW double counting   =      5135.15659847    -2719.01140655
  entropy T*S    EENTRO =         0.00000000
  eigenvalues    EBANDS =     -1108.73422407
  atomic energy  EATOM  =      3827.98814510
  Solvation  Ediel_sol  =         0.00000000
  ---------------------------------------------------
  free energy    TOTEN  =       -78.37937552 eV

  energy without entropy =      -78.37937552  energy(sigma->0) =      -78.37937552


--------------------------------------------------------------------------------------------------------




--------------------------------------- Iteration      1(  11)  ---------------------------------------


    EDDIAG:  cpu time    2.4075: real time    2.4283
  RMM-DIIS:  cpu time    5.6035: real time    5.6040
    ORTHCH:  cpu time    0.8854: real time    0.8855
 BZINTS: Fermi energy: -1.474714;138.000000 electrons
         Band energy:***********;  BLOECHL correction: -0.105963
       DOS:  cpu time    0.0046: real time    0.0046
    --------------------------------------------
      LOOP:  cpu time    8.9009: real time    8.9224

 eigenvalue-minimisations  :  1706
 total energy-change (2. order) :-0.3683215E-02  (-0.1660900E-01)
 number of electron     138.0000000 magnetization 
 augmentation part      138.0000000 magnetization 

 DIPCOR: dipole corrections for dipol
 direction  3 min pos   356,
 dipolmoment           0.000000      0.000000     -0.000403 electrons x Angstroem
 Tr[quadrupol]     -1901.620260

 energy correction for charged system         0.000000 eV
 dipol+quadrupol energy correction           -0.000000 eV
 added-field ion interaction          0.004333 eV  (added to PSCEN)


 Free energy of the ion-electron system (eV)
  ---------------------------------------------------
  alpha Z        PSCENC =        63.16539638
  Ewald energy   TEWEN  =     12491.37099164
  -Hartree energ DENC   =    -15717.16954573
  -exchange      EXHF   =         0.00000000
  -V(xc)+E(xc)   XCENC  =     -2051.14533076
  PAW double counting   =      5135.15659847    -2719.01140655
  entropy T*S    EENTRO =         0.00000000
  eigenvalues    EBANDS =     -1108.73790729
  atomic energy  EATOM  =      3827.98814510
  Solvation  Ediel_sol  =         0.00000000
  ---------------------------------------------------
  free energy    TOTEN  =       -78.38305873 eV

  energy without entropy =      -78.38305873  energy(sigma->0) =      -78.38305873


--------------------------------------------------------------------------------------------------------




--------------------------------------- Iteration      1(  12)  ---------------------------------------


    EDDIAG:  cpu time    2.2418: real time    2.2628
  RMM-DIIS:  cpu time    3.9658: real time    3.9664
    ORTHCH:  cpu time    0.4275: real time    0.4276
 BZINTS: Fermi energy: -1.474746;138.000000 electrons
         Band energy:***********;  BLOECHL correction: -0.105975
       DOS:  cpu time    0.0038: real time    0.0038
    CHARGE:  cpu time    0.2576: real time    0.2576
    MIXING:  cpu time    0.0044: real time    0.0045
    --------------------------------------------
      LOOP:  cpu time    6.9009: real time    6.9227

 eigenvalue-minimisations  :  1814
 total energy-change (2. order) :-0.3176821E-02  (-0.3632435E-02)
 number of electron     138.0000005 magnetization 
 augmentation part        5.2120668 magnetization 

 DIPCOR: dipole corrections for dipol
 direction  3 min pos   356,
 dipolmoment           0.000000      0.000000     -0.000403 electrons x Angstroem
 Tr[quadrupol]     -1901.620260

 energy correction for charged system         0.000000 eV
 dipol+quadrupol energy correction           -0.000000 eV
 added-field ion interaction          0.004333 eV  (added to PSCEN)


 Broyden mixing:
  rms(total) = 0.19503E+01    rms(broyden)= 0.19492E+01
  rms(prec ) = 0.20437E+01
  weight for this iteration     100.00

 Free energy of the ion-electron system (eV)
  ---------------------------------------------------
  alpha Z        PSCENC =        63.16539638
  Ewald energy   TEWEN  =     12491.37099164
  -Hartree energ DENC   =    -15717.16954573
  -exchange      EXHF   =         0.00000000
  -V(xc)+E(xc)   XCENC  =     -2051.14533076
  PAW double counting   =      5135.15659847    -2719.01140655
  entropy T*S    EENTRO =         0.00000000
  eigenvalues    EBANDS =     -1108.74108411
  atomic energy  EATOM  =      3827.98814510
  Solvation  Ediel_sol  =         0.00000000
  ---------------------------------------------------
  free energy    TOTEN  =       -78.38623555 eV

  energy without entropy =      -78.38623555  energy(sigma->0) =      -78.38623555


--------------------------------------------------------------------------------------------------------




--------------------------------------- Iteration      1(  13)  ---------------------------------------


    POTLOK:  cpu time    6.6360: real time    6.6578
    SETDIJ:  cpu time    0.1353: real time    0.1357
    EDDIAG:  cpu time    1.4856: real time    1.4862
  RMM-DIIS:  cpu time    3.4941: real time    3.4945
    ORTHCH:  cpu time    0.5084: real time    0.5084
 BZINTS: Fermi energy: -1.029707;138.000000 electrons
         Band energy:-936.773399;  BLOECHL correction: -0.104786
       DOS:  cpu time    0.0030: real time    0.0030
    CHARGE:  cpu time    0.3005: real time    0.3005
    MIXING:  cpu time    0.0036: real time    0.0036
    --------------------------------------------
      LOOP:  cpu time   12.5664: real time   12.5897

 eigenvalue-minimisations  :  1424
 total energy-change (2. order) : 0.9939665E+01  (-0.5655758E+01)
 number of electron     138.0000004 magnetization 
 augmentation part        4.4826760 magnetization 

 DIPCOR: dipole corrections for dipol
 direction  3 min pos   361,
 dipolmoment           0.000000      0.000000      0.240236 electrons x Angstroem
 Tr[quadrupol]     -1912.876523

 energy correction for charged system         0.000000 eV
 dipol+quadrupol energy correction           -0.002024 eV
 added-field ion interaction         -1.826643 eV  (added to PSCEN)


 Broyden mixing:
  rms(total) = 0.75307E+00    rms(broyden)= 0.75258E+00
  rms(prec ) = 0.82822E+00
  weight for this iteration     100.00

 eigenvalues of (default mixing * dielectric matrix)
  average eigenvalue GAMMA=   0.9708
  0.9708

 Free energy of the ion-electron system (eV)
  ---------------------------------------------------
  alpha Z        PSCENC =        61.33239614
  Ewald energy   TEWEN  =     12491.37099164
  -Hartree energ DENC   =    -15884.34309698
  -exchange      EXHF   =         0.00000000
  -V(xc)+E(xc)   XCENC  =     -2041.65108252
  PAW double counting   =      5560.77390015    -3147.14442575
  entropy T*S    EENTRO =         0.00000000
  eigenvalues    EBANDS =      -936.77339868
  atomic energy  EATOM  =      3827.98814510
  Solvation  Ediel_sol  =         0.00000000
  ---------------------------------------------------
  free energy    TOTEN  =       -68.44657090 eV

  energy without entropy =      -68.44657090  energy(sigma->0) =      -68.44657090


--------------------------------------------------------------------------------------------------------




--------------------------------------- Iteration      1(  14)  ---------------------------------------


    POTLOK:  cpu time    6.7604: real time    6.7827
    SETDIJ:  cpu time    0.1360: real time    0.1360
    EDDIAG:  cpu time    1.5443: real time    1.5448
  RMM-DIIS:  cpu time    3.9643: real time    3.9650
    ORTHCH:  cpu time    0.5909: real time    0.5910
 BZINTS: Fermi energy: -0.868983;138.000000 electrons
         Band energy:-963.938161;  BLOECHL correction: -0.190235
       DOS:  cpu time    0.0030: real time    0.0030
    CHARGE:  cpu time    0.4132: real time    0.4133
    MIXING:  cpu time    0.0040: real time    0.0040
    --------------------------------------------
      LOOP:  cpu time   13.4161: real time   13.4398

 eigenvalue-minimisations  :  1542
 total energy-change (2. order) :-0.6871509E+01  (-0.3524336E+00)
 number of electron     138.0000004 magnetization 
 augmentation part        4.4129353 magnetization 

 DIPCOR: dipole corrections for dipol
 direction  3 min pos   376,
 dipolmoment           0.000000      0.000000     -1.129135 electrons x Angstroem
 Tr[quadrupol]     -1904.644990

 energy correction for charged system         0.000000 eV
 dipol+quadrupol energy correction           -0.044711 eV
 added-field ion interaction         -2.111304 eV  (added to PSCEN)


 Broyden mixing:
  rms(total) = 0.68336E+00    rms(broyden)= 0.68331E+00
  rms(prec ) = 0.16693E+01
  weight for this iteration     100.00

 eigenvalues of (default mixing * dielectric matrix)
  average eigenvalue GAMMA=   1.0491
  1.0491  1.0491

 Free energy of the ion-electron system (eV)
  ---------------------------------------------------
  alpha Z        PSCENC =        61.00504820
  Ewald energy   TEWEN  =     12491.37099164
  -Hartree energ DENC   =    -15865.82439749
  -exchange      EXHF   =         0.00000000
  -V(xc)+E(xc)   XCENC  =     -2039.48255836
  PAW double counting   =      5742.29275173    -3328.72989897
  entropy T*S    EENTRO =         0.00000000
  eigenvalues    EBANDS =      -963.93816146
  atomic energy  EATOM  =      3827.98814510
  Solvation  Ediel_sol  =         0.00000000
  ---------------------------------------------------
  free energy    TOTEN  =       -75.31807960 eV

  energy without entropy =      -75.31807960  energy(sigma->0) =      -75.31807960


--------------------------------------------------------------------------------------------------------




--------------------------------------- Iteration      1(  15)  ---------------------------------------


    POTLOK:  cpu time    8.2185: real time    8.2357
    SETDIJ:  cpu time    0.1353: real time    0.1353
    EDDIAG:  cpu time    2.4179: real time    2.4185
  RMM-DIIS:  cpu time    4.8076: real time    4.8082
    ORTHCH:  cpu time    0.8061: real time    0.8062
 BZINTS: Fermi energy: -1.121045;138.000000 electrons
         Band energy:-922.258850;  BLOECHL correction: -0.146183
       DOS:  cpu time    0.0074: real time    0.0074
    CHARGE:  cpu time    0.4874: real time    0.4874
    MIXING:  cpu time    0.0036: real time    0.0036
    --------------------------------------------
      LOOP:  cpu time   16.8837: real time   16.9023

 eigenvalue-minimisations  :  1483
 total energy-change (2. order) : 0.6526639E+01  (-0.1498126E+00)
 number of electron     138.0000004 magnetization 
 augmentation part        4.3536986 magnetization 

 DIPCOR: dipole corrections for dipol
 direction  3 min pos   386,
 dipolmoment           0.000000      0.000000      0.205213 electrons x Angstroem
 Tr[quadrupol]     -1913.246276

 energy correction for charged system         0.000000 eV
 dipol+quadrupol energy correction           -0.001477 eV
 added-field ion interaction          1.679756 eV  (added to PSCEN)


 Broyden mixing:
  rms(total) = 0.51586E+00    rms(broyden)= 0.51583E+00
  rms(prec ) = 0.73944E+00
  weight for this iteration     100.00

 eigenvalues of (default mixing * dielectric matrix)
  average eigenvalue GAMMA=   1.1313
  2.0433  1.2049  0.1459

 Free energy of the ion-electron system (eV)
  ---------------------------------------------------
  alpha Z        PSCENC =        64.83934270
  Ewald energy   TEWEN  =     12491.37099164
  -Hartree energ DENC   =    -15905.13011250
  -exchange      EXHF   =         0.00000000
  -V(xc)+E(xc)   XCENC  =     -2039.17974902
  PAW double counting   =      5769.11070784    -3355.53191613
  entropy T*S    EENTRO =         0.00000000
  eigenvalues    EBANDS =      -922.25885048
  atomic energy  EATOM  =      3827.98814510
  Solvation  Ediel_sol  =         0.00000000
  ---------------------------------------------------
  free energy    TOTEN  =       -68.79144086 eV

  energy without entropy =      -68.79144086  energy(sigma->0) =      -68.79144086


--------------------------------------------------------------------------------------------------------




--------------------------------------- Iteration      1(  16)  ---------------------------------------


    POTLOK:  cpu time    8.7510: real time    8.7726
    SETDIJ:  cpu time    0.1365: real time    0.1365
    EDDIAG:  cpu time    2.3827: real time    2.3837
  RMM-DIIS:  cpu time    4.9465: real time    4.9478
    ORTHCH:  cpu time    0.8874: real time    0.8874
 BZINTS: Fermi energy: -0.847446;138.000000 electrons
         Band energy:-911.397383;  BLOECHL correction: -0.046487
       DOS:  cpu time    0.0030: real time    0.0030
    CHARGE:  cpu time    0.4724: real time    0.4725
    MIXING:  cpu time    0.0039: real time    0.0039
    --------------------------------------------
      LOOP:  cpu time   17.5834: real time   17.6073

 eigenvalue-minimisations  :  1499
 total energy-change (2. order) : 0.7762048E+00  (-0.1172888E+00)
 number of electron     138.0000004 magnetization 
 augmentation part        4.4279119 magnetization 

 DIPCOR: dipole corrections for dipol
 direction  3 min pos   369,
 dipolmoment           0.000000      0.000000     -0.007030 electrons x Angstroem
 Tr[quadrupol]     -1916.492280

 energy correction for charged system         0.000000 eV
 dipol+quadrupol energy correction           -0.000002 eV
 added-field ion interaction          0.017933 eV  (added to PSCEN)


 Broyden mixing:
  rms(total) = 0.21976E+00    rms(broyden)= 0.21973E+00
  rms(prec ) = 0.32157E+00
  weight for this iteration     100.00

 eigenvalues of (default mixing * dielectric matrix)
  average eigenvalue GAMMA=   1.0618
  2.4346  1.0358  0.6255  0.1513

 Free energy of the ion-electron system (eV)
  ---------------------------------------------------
  alpha Z        PSCENC =        63.17899414
  Ewald energy   TEWEN  =     12491.37099164
  -Hartree energ DENC   =    -15914.94288083
  -exchange      EXHF   =         0.00000000
  -V(xc)+E(xc)   XCENC  =     -2037.99249119
  PAW double counting   =      5891.95681458    -3478.17742624
  entropy T*S    EENTRO =         0.00000000
  eigenvalues    EBANDS =      -911.39738329
  atomic energy  EATOM  =      3827.98814510
  Solvation  Ediel_sol  =         0.00000000
  ---------------------------------------------------
  free energy    TOTEN  =       -68.01523608 eV

  energy without entropy =      -68.01523608  energy(sigma->0) =      -68.01523608


--------------------------------------------------------------------------------------------------------




--------------------------------------- Iteration      1(  17)  ---------------------------------------


    POTLOK:  cpu time    8.4900: real time    8.5078
    SETDIJ:  cpu time    0.1365: real time    0.1365
    EDDIAG:  cpu time    1.2863: real time    1.2868
  RMM-DIIS:  cpu time    3.0505: real time    3.0511
    ORTHCH:  cpu time    0.4680: real time    0.4680
 BZINTS: Fermi energy: -0.798645;138.000000 electrons
         Band energy:-906.108615;  BLOECHL correction: -0.108358
       DOS:  cpu time    0.0038: real time    0.0038
    CHARGE:  cpu time    0.2668: real time    0.2668
    MIXING:  cpu time    0.0039: real time    0.0039
    --------------------------------------------
      LOOP:  cpu time   13.7058: real time   13.7249

 eigenvalue-minimisations  :  1332
 total energy-change (2. order) : 0.1060881E+00  (-0.3199596E-01)
 number of electron     138.0000004 magnetization 
 augmentation part        4.4490466 magnetization 

 DIPCOR: dipole corrections for dipol
 direction  3 min pos   379,
 dipolmoment           0.000000      0.000000     -0.326591 electrons x Angstroem
 Tr[quadrupol]     -1915.276707

 energy correction for charged system         0.000000 eV
[...]
  0.014  -0.001  -0.000   0.053   0.000   0.000  -0.003  -0.000   0.000  -0.000   0.011  -0.000  -0.000
  0.002   0.000  -0.001   0.000   0.076   0.000  -0.000  -0.004  -0.003  -0.000   0.000   0.005   0.000
  0.000   0.000  -0.004   0.000   0.000   0.000  -0.000  -0.000  -0.000  -0.000   0.000   0.000   0.000
 -0.003   0.000   0.000  -0.003  -0.000  -0.000   0.000   0.000  -0.000   0.000  -0.001   0.000   0.000
 -0.000  -0.000   0.000  -0.000  -0.004  -0.000   0.000   0.000   0.000   0.000  -0.000  -0.000  -0.000
  0.002   0.000   0.000   0.000  -0.003  -0.000  -0.000   0.000   0.004  -0.000   0.000  -0.000  -0.000
  0.000  -0.000   0.004  -0.000  -0.000  -0.000   0.000   0.000  -0.000   0.002  -0.000   0.000  -0.000
 -0.021   0.000  -0.000   0.011   0.000   0.000  -0.001  -0.000   0.000  -0.000   0.004  -0.000  -0.000
  0.000   0.000  -0.000  -0.000   0.005   0.000   0.000  -0.000  -0.000   0.000  -0.000   0.002   0.000
 -0.002  -0.000  -0.003  -0.000   0.000   0.000   0.000  -0.000  -0.000  -0.000  -0.000   0.000   0.003


------------------------ aborting loop because EDIFF is reached ----------------------------------------


    CHARGE:  cpu time    0.5429: real time    0.5429
    FORLOC:  cpu time    0.0392: real time    0.0392
    FORNL :  cpu time    1.8696: real time    1.8698
    STRESS:  cpu time    5.5167: real time    5.5173
    FORCOR:  cpu time    9.0372: real time    9.0384
    FORHAR:  cpu time    0.2679: real time    0.2680
    MIXING:  cpu time    0.0103: real time    0.0103
    OFIELD:  cpu time    0.0000: real time    0.0000

  FORCE on cell =-STRESS in cart. coord.  units (eV):
  Direction    XX          YY          ZZ          XY          YZ          ZX
  --------------------------------------------------------------------------------------
  Alpha Z    63.16106    63.16106    63.16106
  Ewald   14135.86324 13782.14805-15426.65010  -306.86746   140.87120    84.95672
  Hartree 15023.25292 14756.75531-13836.42986  -232.44865    39.24975    22.81722
  E(xc)    -444.89372  -445.20101  -443.51433    -0.20672     0.59099     0.36625
  Local  -30124.32253-29508.49485 28311.66354   536.83392  -144.33210   -85.41265
  n-local   119.49661   120.27740   111.69228     0.36677     0.96536     0.59437
  augment    44.82897    44.87067    44.76247     0.00365    -2.43346    -1.51709
  Kinetic  1175.20284  1175.85603  1175.28186     0.47353   -35.00276   -21.77521
  Fock        0.00000     0.00000     0.00000     0.00000     0.00000     0.00000
  -------------------------------------------------------------------------------------
  Total      -7.41061   -10.62733    -0.03308    -1.84496    -0.09101     0.02962
  in kB      -4.60206    -6.59968    -0.02054    -1.14574    -0.05652     0.01839
  external pressure =       -3.74 kB  Pullay stress =        0.00 kB


 VOLUME and BASIS-vectors are now :
 -----------------------------------------------------------------------------
  energy-cutoff  :      520.00
  volume of cell :     2579.96
      direct lattice vectors                 reciprocal lattice vectors
     9.555752754  0.000000000  0.000000000     0.104649003  0.060419130  0.000000000
    -4.777876377  8.275524637  0.000000000     0.000000000  0.120838260  0.000000000
     0.000000000  0.000000000 32.625095367     0.000000000  0.000000000  0.030651251

  length of vectors
     9.555752754  9.555752754 32.625095367     0.120838260  0.120838260  0.030651251


 FORCES acting on ions
    electron-ion (+dipol)            ewald-force                    non-local-force                 convergence-correction
 -----------------------------------------------------------------------------------------------
   0.451E-01 -.460E-01 0.121E+03   0.281E-03 0.916E-03 -.120E+03   -.392E-01 0.289E-01 -.816E+00   0.230E-05 0.139E-05 -.324E-04
   0.137E-01 -.690E-01 0.552E+02   0.394E-02 0.414E-01 -.552E+02   -.296E-01 0.240E-01 0.161E-01   0.356E-05 -.700E-06 -.857E-04
   -.779E+00 -.117E+01 0.485E+01   0.787E+00 0.110E+01 -.556E+01   -.779E-04 0.547E-01 0.686E+00   0.214E-05 -.976E-06 -.482E-04
   -.682E-02 -.595E-01 0.121E+03   0.141E-03 0.106E-03 -.120E+03   -.160E-01 0.486E-01 -.912E+00   0.641E-06 0.120E-05 -.324E-04
   -.179E-02 -.244E-01 0.551E+02   0.276E-01 0.205E-01 -.552E+02   -.266E-01 0.306E-02 0.581E-01   -.157E-05 0.245E-06 -.879E-04
   -.171E+01 -.300E+01 -.776E+01   0.169E+01 0.292E+01 0.731E+01   -.792E-02 0.647E-01 0.450E+00   -.292E-05 0.779E-06 -.457E-04
   0.379E-01 0.334E-01 0.121E+03   0.727E-03 -.400E-03 -.120E+03   -.381E-01 0.232E-02 -.890E+00   0.212E-05 0.345E-06 -.315E-04
   -.240E-01 0.210E-01 0.553E+02   0.285E-01 -.330E-01 -.553E+02   -.876E-02 0.217E-01 0.401E-01   0.294E-05 0.329E-05 -.862E-04
   0.538E+00 0.247E+01 -.136E+02   -.471E+00 -.239E+01 0.131E+02   -.684E-01 -.356E-01 0.485E+00   0.192E-05 0.176E-05 -.478E-04
   -.532E-02 -.636E-01 0.121E+03   -.391E-03 -.223E-04 -.120E+03   -.126E-01 0.484E-01 -.910E+00   0.132E-05 -.126E-05 -.303E-04
   0.152E-01 -.195E-01 0.551E+02   0.121E-02 0.918E-02 -.552E+02   -.148E-01 0.521E-02 0.677E-01   -.160E-05 -.347E-05 -.883E-04
   -.865E+00 -.201E+01 -.597E+01   0.835E+00 0.190E+01 0.556E+01   0.868E-02 0.914E-01 0.429E+00   -.112E-05 -.429E-05 -.520E-04
   0.432E-01 0.234E-01 0.121E+03   -.646E-03 0.151E-03 -.120E+03   -.373E-01 0.129E-01 -.891E+00   -.181E-05 -.517E-05 -.319E-04
   0.341E-01 0.442E-02 0.552E+02   -.253E-01 -.206E-01 -.553E+02   -.508E-02 0.257E-01 0.421E-01   -.119E-05 -.637E-05 -.885E-04
   0.191E+01 0.173E+01 -.139E+02   -.184E+01 -.166E+01 0.134E+02   -.580E-01 -.346E-01 0.472E+00   -.141E-05 -.197E-05 -.426E-04
   0.520E-01 -.425E-01 0.121E+03   -.384E-03 -.992E-03 -.120E+03   -.337E-01 0.407E-01 -.800E+00   -.405E-05 0.382E-05 -.330E-04
   0.534E-01 0.225E-02 0.552E+02   -.309E-01 -.227E-01 -.552E+02   -.244E-01 0.298E-01 0.157E-01   -.679E-05 0.433E-05 -.869E-04
   0.112E+01 0.218E+01 0.427E+01   -.110E+01 -.223E+01 -.491E+01   0.176E-02 0.470E-01 0.620E+00   -.195E-05 0.124E-05 -.442E-04
   0.360E-01 0.869E-02 0.121E+03   0.130E-03 0.927E-03 -.120E+03   -.344E-01 0.932E-02 -.883E+00   -.364E-05 -.946E-06 -.310E-04
   0.129E-01 -.379E-01 0.553E+02   -.400E-02 0.473E-02 -.553E+02   -.730E-02 0.292E-01 0.494E-01   -.201E-05 0.143E-05 -.874E-04
   0.127E+01 0.171E+01 -.118E+02   -.118E+01 -.163E+01 0.114E+02   -.783E-01 -.531E-01 0.456E+00   -.213E-05 0.166E-05 -.468E-04
   0.384E-01 -.429E-01 0.121E+03   0.526E-03 -.944E-04 -.120E+03   -.318E-01 0.337E-01 -.822E+00   0.117E-05 -.175E-05 -.312E-04
   0.127E-01 -.255E-01 0.552E+02   -.168E-02 0.440E-02 -.552E+02   -.223E-01 0.279E-01 0.161E-01   0.278E-05 -.215E-05 -.887E-04
   -.550E+00 -.595E+00 0.468E+01   0.545E+00 0.544E+00 -.539E+01   0.134E-01 0.448E-01 0.691E+00   0.400E-05 0.474E-06 -.428E-04
   -.257E-01 -.518E-01 0.121E+03   -.322E-03 -.684E-03 -.120E+03   -.445E-02 0.479E-01 -.901E+00   0.195E-05 0.242E-05 -.324E-04
   0.696E-02 0.154E-01 0.552E+02   0.553E-02 -.147E-01 -.552E+02   -.170E-01 0.387E-02 0.607E-01   0.386E-05 0.348E-05 -.887E-04
   -.113E+01 -.157E+01 -.568E+01   0.109E+01 0.147E+01 0.526E+01   0.155E-01 0.860E-01 0.440E+00   0.195E-05 0.145E-05 -.419E-04
   0.222E-01 0.858E-02 0.885E+02   -.937E-02 -.368E-01 -.884E+02   0.107E-02 -.929E-02 -.591E-01   0.119E-05 -.236E-05 -.678E-04
   -.145E+00 0.183E+00 0.217E+02   0.143E+00 -.143E+00 -.219E+02   0.782E-02 -.766E-01 0.164E+00   0.628E-07 -.619E-05 -.684E-04
   -.154E-01 0.778E-02 0.885E+02   0.394E-01 0.153E-01 -.884E+02   0.114E-01 0.363E-02 -.485E-01   -.275E-05 0.284E-05 -.672E-04
   -.370E+00 -.331E-01 0.216E+02   0.309E+00 0.490E-01 -.218E+02   0.889E-01 0.771E-02 0.168E+00   -.398E-05 0.580E-05 -.678E-04
   -.110E-01 -.306E-01 0.885E+02   -.330E-01 0.272E-01 -.884E+02   0.943E-02 0.245E-02 -.107E+00   0.362E-05 0.714E-06 -.651E-04
   0.404E+00 -.184E+00 0.224E+02   -.350E+00 0.136E+00 -.225E+02   -.741E-01 0.432E-01 0.134E+00   0.201E-05 -.742E-06 -.676E-04
   -.232E-01 0.481E-02 0.885E+02   0.348E-01 0.246E-01 -.884E+02   0.221E-01 -.241E-02 -.560E-01   0.121E-05 -.657E-05 -.679E-04
   -.233E+00 -.154E+00 0.219E+02   0.175E+00 0.173E+00 -.221E+02   0.884E-01 0.410E-02 0.164E+00   0.756E-06 -.712E-05 -.680E-04
   -.974E-03 -.707E-02 0.885E+02   -.411E-01 0.184E-01 -.884E+02   0.993E-02 0.593E-03 -.102E+00   -.169E-05 0.256E-06 -.679E-04
   0.601E+00 -.602E-01 0.223E+02   -.540E+00 0.261E-01 -.224E+02   -.724E-01 0.434E-01 0.125E+00   -.395E-05 0.170E-05 -.671E-04
   0.207E-01 0.175E-01 0.885E+02   -.926E-02 -.444E-01 -.884E+02   0.851E-02 -.173E-01 -.526E-01   -.394E-05 0.374E-05 -.681E-04
   -.548E-01 0.425E+00 0.220E+02   0.553E-01 -.392E+00 -.222E+02   0.145E-01 -.704E-01 0.167E+00   -.465E-05 0.116E-05 -.676E-04
   -.126E-01 -.273E-01 0.885E+02   -.290E-01 0.325E-01 -.884E+02   0.857E-02 -.200E-02 -.105E+00   -.239E-05 -.133E-05 -.667E-04
   0.364E+00 -.356E+00 0.223E+02   -.312E+00 0.302E+00 -.225E+02   -.731E-01 0.474E-01 0.130E+00   -.695E-06 -.154E-05 -.664E-04
   0.187E-01 0.240E-01 0.885E+02   -.202E-02 -.480E-01 -.884E+02   -.433E-02 -.120E-01 -.567E-01   0.441E-05 0.514E-06 -.676E-04
   -.248E+00 0.388E+00 0.219E+02   0.243E+00 -.349E+00 -.221E+02   0.553E-02 -.684E-01 0.166E+00   0.763E-05 0.197E-05 -.674E-04
   -.287E-01 -.108E-01 0.885E+02   0.385E-01 0.278E-01 -.884E+02   0.185E-01 0.155E-02 -.475E-01   0.377E-06 0.216E-05 -.674E-04
   -.365E+00 -.163E+00 0.222E+02   0.303E+00 0.174E+00 -.223E+02   0.824E-01 0.895E-03 0.170E+00   0.273E-05 0.497E-05 -.682E-04
   0.185E+02 0.386E+02 -.237E+03   -.307E+02 -.621E+02 0.210E+03   0.123E+02 0.235E+02 0.265E+02   -.333E-04 -.237E-05 -.318E-04
   0.914E+01 0.183E+02 -.399E+03   -.221E+02 -.429E+02 0.432E+03   0.130E+02 0.246E+02 -.329E+02   -.771E-05 -.305E-04 0.548E-04
   0.733E+01 0.115E+02 -.398E+03   -.215E+02 -.364E+02 0.430E+03   0.141E+02 0.249E+02 -.321E+02   -.486E-05 -.917E-05 0.413E-04
   0.240E+02 0.369E+02 -.237E+03   -.380E+02 -.592E+02 0.211E+03   0.140E+02 0.224E+02 0.265E+02   0.109E-04 0.164E-04 -.295E-04
   0.113E+02 0.186E+02 -.399E+03   -.252E+02 -.420E+02 0.432E+03   0.139E+02 0.234E+02 -.332E+02   -.135E-04 0.275E-05 0.202E-04
   0.261E+02 0.467E+02 -.239E+03   -.389E+02 -.694E+02 0.213E+03   0.127E+02 0.227E+02 0.264E+02   0.342E-04 -.349E-04 -.314E-04
   0.345E+02 -.448E+02 -.898E+02   -.391E+02 0.502E+02 0.933E+02   0.459E+01 -.547E+01 -.348E+01   -.977E-05 0.948E-05 0.834E-05
   -.566E+02 0.307E+01 -.910E+02   0.637E+02 -.373E+01 0.946E+02   -.709E+01 0.664E+00 -.357E+01   0.633E-05 -.455E-06 0.734E-05
   -.383E+02 -.717E+02 -.585E+02   0.422E+02 0.789E+02 0.584E+02   -.388E+01 -.715E+01 0.256E-01   0.384E-05 0.597E-05 0.355E-05
   0.103E+02 0.182E+02 0.377E+02   -.113E+02 -.200E+02 -.447E+02   0.103E+01 0.177E+01 0.701E+01   -.730E-06 -.355E-05 -.161E-04
   -.427E+02 -.729E+02 -.601E+02   0.468E+02 0.799E+02 0.603E+02   -.411E+01 -.701E+01 -.140E+00   0.147E-05 0.223E-05 0.492E-05
   0.102E+02 0.150E+02 0.381E+02   -.113E+02 -.166E+02 -.451E+02   0.105E+01 0.157E+01 0.701E+01   -.125E-05 0.535E-06 -.796E-05
   0.313E+02 -.473E+02 -.897E+02   -.354E+02 0.532E+02 0.932E+02   0.416E+01 -.583E+01 -.347E+01   -.653E-05 0.120E-04 0.653E-05
   -.562E+02 0.744E+01 -.913E+02   0.632E+02 -.867E+01 0.949E+02   -.701E+01 0.123E+01 -.360E+01   0.987E-05 0.435E-06 0.578E-05
   -.423E+02 -.686E+02 -.571E+02   0.466E+02 0.755E+02 0.570E+02   -.423E+01 -.694E+01 0.137E+00   -.413E-05 -.523E-05 0.368E-05
   0.126E+02 0.185E+02 0.374E+02   -.138E+02 -.202E+02 -.444E+02   0.121E+01 0.178E+01 0.699E+01   0.615E-06 0.273E-05 -.178E-06
   0.341E+02 -.448E+02 -.900E+02   -.386E+02 0.504E+02 0.935E+02   0.446E+01 -.562E+01 -.350E+01   -.237E-05 0.446E-05 0.646E-05
   -.559E+02 0.597E+01 -.914E+02   0.630E+02 -.689E+01 0.950E+02   -.709E+01 0.915E+00 -.361E+01   0.159E-04 -.401E-05 0.736E-05
 -----------------------------------------------------------------------------------------------
   -.626E+02 -.112E+03 0.209E+02   0.000E+00 -.115E-12 0.355E-12   0.626E+02 0.112E+03 -.209E+02   -.594E-06 -.329E-04 -.265E-02
 
 
 POSITION                                       TOTAL-FORCE (eV/Angst)
 -----------------------------------------------------------------------------------
      0.00000      0.00000      0.00000         0.006234     -0.016095      0.013439
      9.55112      0.00574      5.15913        -0.011870     -0.003622      0.003776
      4.74464      8.26118     10.76313         0.008057     -0.014505     -0.019882
     -1.59263      2.75851      0.00000        -0.022680     -0.010773     -0.017265
     -1.59246      2.76544      5.13594        -0.000715     -0.000802     -0.002250
      7.94104      2.77115     10.15094        -0.023153     -0.015095      0.006440
     -3.18525      5.51702      0.00000         0.000519      0.035325     -0.018538
      6.36732      5.51830      5.13260        -0.004247      0.009743      0.000830
      6.35924      5.53592     10.24479        -0.001059      0.035425      0.008434
      3.18525      0.00000      0.00000        -0.018285     -0.015244     -0.017661
      3.18483      0.00723      5.13486         0.001671     -0.005070     -0.000428
      3.15728      0.00955     10.12644        -0.022093     -0.016515      0.011852
      1.59263      2.75851      0.00000         0.005304      0.036492     -0.016398
      1.58856      2.75888      5.13357         0.003786      0.009513     -0.000368
      1.57135      2.78320     10.24921         0.007113      0.038827      0.007875
     -0.00000      5.51702      0.00000         0.017943     -0.002845      0.005340
     -0.00529      5.52256      5.15899        -0.001902      0.009304      0.004319
     -0.02779      5.52121     10.77687         0.018054     -0.005347     -0.018465
      6.37050      0.00000      0.00000         0.001694      0.018953     -0.023020
      6.36644      0.00195      5.13285         0.001566     -0.003887      0.002823
      6.35716      0.02605     10.23017         0.004638      0.025510      0.014559
      4.77788      2.75851      0.00000         0.007135     -0.009318      0.013637
      4.77280      2.76329      5.15932        -0.011223      0.006876      0.005115
      4.73933      2.75136     10.76484         0.007576     -0.005587     -0.021647
      3.18525      5.51702      0.00000        -0.030429     -0.004558     -0.026754
      3.18459      5.52362      5.13353        -0.004487      0.004569      0.003677
      3.16140      5.52241     10.12162        -0.027314     -0.013225      0.015933
      0.00000      1.83901      2.60418         0.013883     -0.037513      0.017010
      0.00557      1.81783      7.70479         0.006264     -0.036971     -0.001039
     -1.59263      4.59751      2.60418         0.035410      0.026711      0.019560
     -1.58141      4.62932      7.70233         0.027859      0.023696     -0.000292
     -3.18525      7.35602      2.60418        -0.034537     -0.000872     -0.016325
     -3.21358      7.35841      7.67081        -0.020774     -0.005121      0.006311
      3.18525      1.83901      2.60418         0.033697      0.027027      0.018165
      3.19449      1.87499      7.70127         0.030576      0.023645     -0.001484
      1.59263      4.59751      2.60418        -0.032144      0.011924     -0.015597
      1.56387      4.60023      7.66959        -0.011337      0.009226      0.007523
      0.00000      7.35602      2.60418         0.019966     -0.044124      0.016977
      0.00694      7.33612      7.69767         0.015008     -0.036694     -0.003652
      6.37050      1.83901      2.60418        -0.033063      0.003224     -0.014826
      6.34501      1.84705      7.67399        -0.020342     -0.005893      0.006659
      4.77788      4.59751      2.60418         0.012391     -0.036030      0.017474
      4.78731      4.57822      7.69516         0.000521     -0.029662     -0.001706
      3.18525      7.35602      2.60418         0.028400      0.018563      0.019744
      3.19472      7.38827      7.69432         0.019824      0.011183     -0.003496
      4.68004      8.15093     12.93042         0.000942      0.005002      0.007885
     -2.02402      7.64864     13.50532         0.000793      0.007313      0.030197
      7.47585      1.96433     13.50685         0.006275      0.010023      0.027822
      4.66716      2.67455     12.93130         0.000070     -0.002081      0.010005
      2.80292      4.88913     13.50256         0.003233     -0.002235      0.042131
     -0.03591      5.53269     12.93122        -0.010860     -0.006592      0.006932
      8.90878      0.56526     13.37726        -0.001481      0.000412     -0.004006
     -4.00178      8.09173     13.38699         0.003946     -0.000489     -0.006272
      3.22165      0.23582     13.48022         0.003788     -0.000185     -0.004552
     -2.15062      7.43284     12.53583        -0.004760     -0.013804     -0.025277
     -1.58395      2.81111     13.50173         0.001870      0.002785     -0.002559
      7.34613      1.77437     12.53078        -0.008705     -0.013227     -0.025137
      4.17307      3.40569     13.37618        -0.003010      0.005143     -0.005429
      5.53177      2.54548     13.39038         0.002044     -0.001576     -0.006575
      3.31309      5.72719     13.46393         0.000866      0.004736     -0.008251
      2.65297      4.67218     12.53702        -0.007504     -0.006898     -0.030188
     -0.56573      6.23599     13.37785        -0.000393      0.002253     -0.004610
      0.83337      5.44279     13.38930         0.009451     -0.000947     -0.008497
 -----------------------------------------------------------------------------------
    total drift:                               -0.000941     -0.000817     -0.028772


--------------------------------------------------------------------------------------------------------



  FREE ENERGIE OF THE ION-ELECTRON SYSTEM (eV)
  ---------------------------------------------------
  free  energy   TOTEN  =       -67.87433339 eV

  energy  without entropy=      -67.87433339  energy(sigma->0) =      -67.87433339
 


--------------------------------------------------------------------------------------------------------


    POTLOK:  cpu time    9.3417: real time    9.3435


--------------------------------------------------------------------------------------------------------


 stress matrix after NEB project (eV)
     -7.41061     -1.84496      0.02962
     -1.84496    -10.62733     -0.09101
      0.02962     -0.09101     -0.03308
  FORCES: max atom, RMS     0.042314    0.020036
  FORCE total and by dimension    0.159029    0.042131
  Stress total and by dimension   13.216827   10.627331
     LOOP+:  cpu time  570.5099: real time  572.9168
 vacuum level on the upper side and lower side of the slab         2.341         3.165
    4ORBIT:  cpu time    0.0000: real time    0.0000
 BZINTS: Fermi energy: -0.641153;138.000000 electrons
         Band energy:-884.690959;  BLOECHL correction: -0.110150

 total amount of memory used by VASP MPI-rank0    62217. kBytes
=======================================================================

   base      :      30000. kBytes
   nonlr-proj:       6314. kBytes
   fftplans  :       6459. kBytes
   grid      :      11407. kBytes
   one-center:         24. kBytes
   wavefun   :       8013. kBytes
 
  
  
 General timing and accounting informations for this job:
 ========================================================
  
                  Total CPU time used (sec):      621.594
                            User time (sec):      611.326
                          System time (sec):       10.268
                         Elapsed time (sec):      631.666
  
                   Maximum memory used (kb):      268812.
                   Average memory used (kb):           0.
  
                          Minor page faults:       284412
                          Major page faults:            0
                 Voluntary context switches:        49285
