Mg_slab_in_a_box                        
           1
     9.555753    0.000000    0.000000
    -4.777876    8.275525    0.000000
     0.000000    0.000000   32.625095
   Mg   O    H 
  45   6  12
Direct configuration=     1
   0.00000000  0.00000000  0.00000000
   0.99986271  0.00069408  0.15813366
   0.99565589  0.99826722  0.32990334
   0.00000001  0.33333336  0.00000000
   0.00043562  0.33417045  0.15742312
   0.99845171  0.33486056  0.31113889
   0.00000002  0.66666672  0.00000000
   0.99974479  0.66682125  0.15732061
   0.99996357  0.66895107  0.31401556
   0.33333334  0.00000000  0.00000000
   0.33372568  0.00087318  0.15738986
   0.33098362  0.00115439  0.31038799
   0.33333335  0.33333336  0.00000000
   0.33293059  0.33337801  0.15735024
   0.33259834  0.33631717  0.31415104
   0.33333336  0.66666672  0.00000000
   0.33311481  0.66733658  0.15812948
   0.33067850  0.66717331  0.33032470
   0.66666668  0.00000000  0.00000000
   0.66635906  0.00023531  0.15732834
   0.66684493  0.00314824  0.31356754
   0.66666668  0.33333336  0.00000000
   0.66642428  0.33391154  0.15813953
   0.66220121  0.33246963  0.32995573
   0.66666670  0.66666672  0.00000000
   0.66699610  0.66746485  0.15734925
   0.66449640  0.66731831  0.31024038
   0.11111113  0.22222222  0.07982145
   0.11041420  0.21966363  0.23616136
   0.11111114  0.55555561  0.07982145
   0.11420642  0.55939839  0.23608610
   0.11111116  0.88888894  0.07982145
   0.10829009  0.88917709  0.23512000
   0.44444450  0.22222222  0.07982145
   0.44758503  0.22657009  0.23605356
   0.44444450  0.55555561  0.07982145
   0.44159963  0.55588411  0.23508262
   0.44444451  0.88888894  0.07982145
   0.44396795  0.88648407  0.23594334
   0.77777779  0.22222222  0.07982145
   0.77559572  0.22319408  0.23521751
   0.77777781  0.55555561  0.07982145
   0.77759928  0.55322421  0.23586615
   0.77777784  0.88888894  0.07982145
   0.78071643  0.89278528  0.23584051
   0.98223337  0.98494444  0.39633352
   0.25031233  0.92424825  0.41395488
   0.90102323  0.23736590  0.41400179
   0.65000803  0.32318776  0.39636062
   0.58871995  0.59079394  0.41387033
   0.33052260  0.66856060  0.39635820
   0.96644758  0.06830491  0.41002970
   0.07011234  0.97779007  0.41032800
   0.35139061  0.02849666  0.41318570
   0.22402579  0.89817182  0.38423882
   0.00408656  0.33969024  0.41384498
   0.87597089  0.21441200  0.38408406
   0.64247697  0.41153803  0.40999668
   0.73268989  0.30759156  0.41043187
   0.69274288  0.69206367  0.41268621
   0.55992013  0.56457810  0.38427521
   0.31756957  0.75354560  0.41004790
   0.41606013  0.65769782  0.41039886
