  63  63   0   0
  0.4095168E+02  0.9555753E-09  0.9555753E-09  0.3262510E-08  0.5000000E-15
  1.000000000000000E-004
  CAR 
 Mg_slab_in_a_box                        
      4.17133832    -25.91365117  301     -0.64212951      1.00000000
    -25.914  0.0000E+00  0.0000E+00
    -25.813  0.0000E+00  0.0000E+00
    -25.713  0.0000E+00  0.0000E+00
    -25.613  0.0000E+00  0.0000E+00
    -25.513  0.0000E+00  0.0000E+00
    -25.412  0.0000E+00  0.0000E+00
    -25.312  0.0000E+00  0.0000E+00
    -25.212  0.0000E+00  0.0000E+00
    -25.111  0.0000E+00  0.0000E+00
    -25.011  0.0000E+00  0.0000E+00
    -24.911  0.0000E+00  0.0000E+00
    -24.811  0.0000E+00  0.0000E+00
    -24.710  0.0000E+00  0.0000E+00
    -24.610  0.0000E+00  0.0000E+00
    -24.510  0.0000E+00  0.0000E+00
    -24.409  0.0000E+00  0.0000E+00
    -24.309  0.0000E+00  0.0000E+00
    -24.209  0.0000E+00  0.0000E+00
    -24.109  0.0000E+00  0.0000E+00
    -24.008  0.0000E+00  0.0000E+00
    -23.908  0.0000E+00  0.2000E+01
    -23.808  0.0000E+00  0.2000E+01
    -23.707  0.0000E+00  0.4000E+01
    -23.607  0.0000E+00  0.6000E+01
    -23.507  0.0000E+00  0.6000E+01
    -23.407  0.7249E+02  0.8080E+01
    -23.306  0.0000E+00  0.1000E+02
    -23.206  0.0000E+00  0.1200E+02
    -23.106  0.0000E+00  0.1200E+02
    -23.005  0.0000E+00  0.1200E+02
    -22.905  0.0000E+00  0.1200E+02
    -22.805  0.0000E+00  0.1200E+02
    -22.705  0.0000E+00  0.1200E+02
    -22.604  0.0000E+00  0.1200E+02
    -22.504  0.0000E+00  0.1200E+02
    -22.404  0.0000E+00  0.1200E+02
    -22.303  0.0000E+00  0.1200E+02
    -22.203  0.0000E+00  0.1200E+02
    -22.103  0.0000E+00  0.1200E+02
    -22.003  0.0000E+00  0.1200E+02
    -21.902  0.0000E+00  0.1200E+02
    -21.802  0.0000E+00  0.1200E+02
    -21.702  0.0000E+00  0.1200E+02
    -21.601  0.0000E+00  0.1200E+02
    -21.501  0.0000E+00  0.1200E+02
    -21.401  0.0000E+00  0.1200E+02
    -21.301  0.0000E+00  0.1200E+02
    -21.200  0.0000E+00  0.1200E+02
    -21.100  0.0000E+00  0.1200E+02
    -21.000  0.0000E+00  0.1200E+02
    -20.899  0.0000E+00  0.1200E+02
    -20.799  0.0000E+00  0.1200E+02
    -20.699  0.0000E+00  0.1200E+02
    -20.599  0.0000E+00  0.1200E+02
    -20.498  0.0000E+00  0.1200E+02
    -20.398  0.0000E+00  0.1200E+02
    -20.298  0.0000E+00  0.1200E+02
    -20.198  0.0000E+00  0.1200E+02
    -20.097  0.0000E+00  0.1200E+02
    -19.997  0.0000E+00  0.1200E+02
    -19.897  0.0000E+00  0.1200E+02
    -19.796  0.0000E+00  0.1200E+02
    -19.696  0.0000E+00  0.1200E+02
    -19.596  0.0000E+00  0.1200E+02
    -19.496  0.0000E+00  0.1200E+02
    -19.395  0.0000E+00  0.1200E+02
    -19.295  0.0000E+00  0.1200E+02
    -19.195  0.0000E+00  0.1200E+02
    -19.094  0.0000E+00  0.1200E+02
    -18.994  0.0000E+00  0.1200E+02
    -18.894  0.0000E+00  0.1200E+02
    -18.794  0.0000E+00  0.1200E+02
    -18.693  0.0000E+00  0.1200E+02
    -18.593  0.0000E+00  0.1200E+02
    -18.493  0.0000E+00  0.1200E+02
    -18.392  0.0000E+00  0.1200E+02
    -18.292  0.0000E+00  0.1200E+02
    -18.192  0.0000E+00  0.1200E+02
    -18.092  0.0000E+00  0.1200E+02
    -17.991  0.0000E+00  0.1200E+02
    -17.891  0.0000E+00  0.1200E+02
    -17.791  0.0000E+00  0.1200E+02
    -17.690  0.0000E+00  0.1200E+02
    -17.590  0.0000E+00  0.1200E+02
    -17.490  0.0000E+00  0.1200E+02
    -17.390  0.0000E+00  0.1200E+02
    -17.289  0.0000E+00  0.1200E+02
    -17.189  0.0000E+00  0.1200E+02
    -17.089  0.0000E+00  0.1200E+02
    -16.988  0.0000E+00  0.1200E+02
    -16.888  0.0000E+00  0.1200E+02
    -16.788  0.0000E+00  0.1200E+02
    -16.688  0.0000E+00  0.1200E+02
    -16.587  0.0000E+00  0.1200E+02
    -16.487  0.0000E+00  0.1200E+02
    -16.387  0.0000E+00  0.1200E+02
    -16.286  0.0000E+00  0.1200E+02
    -16.186  0.0000E+00  0.1200E+02
    -16.086  0.0000E+00  0.1200E+02
    -15.986  0.0000E+00  0.1200E+02
    -15.885  0.0000E+00  0.1200E+02
    -15.785  0.0000E+00  0.1200E+02
    -15.685  0.0000E+00  0.1200E+02
    -15.584  0.0000E+00  0.1200E+02
    -15.484  0.0000E+00  0.1200E+02
    -15.384  0.0000E+00  0.1200E+02
    -15.284  0.0000E+00  0.1200E+02
    -15.183  0.0000E+00  0.1200E+02
    -15.083  0.0000E+00  0.1200E+02
    -14.983  0.0000E+00  0.1200E+02
    -14.882  0.0000E+00  0.1200E+02
    -14.782  0.0000E+00  0.1200E+02
    -14.682  0.0000E+00  0.1200E+02
    -14.582  0.0000E+00  0.1200E+02
    -14.481  0.0000E+00  0.1200E+02
    -14.381  0.0000E+00  0.1200E+02
    -14.281  0.0000E+00  0.1200E+02
    -14.181  0.0000E+00  0.1200E+02
    -14.080  0.0000E+00  0.1200E+02
    -13.980  0.0000E+00  0.1200E+02
    -13.880  0.0000E+00  0.1200E+02
    -13.779  0.0000E+00  0.1200E+02
    -13.679  0.0000E+00  0.1200E+02
    -13.579  0.0000E+00  0.1200E+02
    -13.479  0.0000E+00  0.1200E+02
    -13.378  0.0000E+00  0.1200E+02
    -13.278  0.0000E+00  0.1200E+02
    -13.178  0.0000E+00  0.1200E+02
    -13.077  0.0000E+00  0.1200E+02
    -12.977  0.0000E+00  0.1200E+02
    -12.877  0.0000E+00  0.1200E+02
    -12.777  0.0000E+00  0.1200E+02
    -12.676  0.0000E+00  0.1200E+02
    -12.576  0.0000E+00  0.1200E+02
    -12.476  0.0000E+00  0.1200E+02
    -12.375  0.0000E+00  0.1200E+02
    -12.275  0.0000E+00  0.1200E+02
    -12.175  0.0000E+00  0.1200E+02
    -12.075  0.0000E+00  0.1200E+02
    -11.974  0.0000E+00  0.1200E+02
    -11.874  0.0000E+00  0.1400E+02
    -11.774  0.0000E+00  0.1600E+02
    -11.673  0.0000E+00  0.1800E+02
    -11.573  0.0000E+00  0.1800E+02
    -11.473  0.0000E+00  0.1800E+02
    -11.373  0.0000E+00  0.1800E+02
    -11.272  0.0000E+00  0.1800E+02
    -11.172  0.1113E+03  0.2072E+02
    -11.072  0.0000E+00  0.2200E+02
    -10.971  0.0000E+00  0.2400E+02
    -10.871  0.0000E+00  0.2400E+02
    -10.771  0.0000E+00  0.2400E+02
    -10.671  0.0000E+00  0.2400E+02
    -10.570  0.0000E+00  0.2400E+02
    -10.470  0.0000E+00  0.2400E+02
    -10.370  0.0000E+00  0.2400E+02
    -10.269  0.0000E+00  0.2400E+02
    -10.169  0.0000E+00  0.2400E+02
    -10.069  0.0000E+00  0.2400E+02
     -9.969  0.0000E+00  0.2400E+02
     -9.868  0.0000E+00  0.2400E+02
     -9.768  0.0000E+00  0.2400E+02
     -9.668  0.0000E+00  0.2400E+02
     -9.567  0.0000E+00  0.2400E+02
     -9.467  0.0000E+00  0.2400E+02
     -9.367  0.0000E+00  0.2400E+02
     -9.267  0.0000E+00  0.2400E+02
     -9.166  0.0000E+00  0.2400E+02
     -9.066  0.0000E+00  0.2400E+02
     -8.966  0.0000E+00  0.2400E+02
     -8.865  0.0000E+00  0.2400E+02
     -8.765  0.0000E+00  0.2600E+02
     -8.665  0.9194E+02  0.2732E+02
     -8.565  0.0000E+00  0.2800E+02
     -8.464  0.0000E+00  0.3000E+02
     -8.364  0.0000E+00  0.3000E+02
     -8.264  0.0000E+00  0.3000E+02
     -8.164  0.0000E+00  0.3000E+02
     -8.063  0.0000E+00  0.3000E+02
     -7.963  0.0000E+00  0.3200E+02
     -7.863  0.0000E+00  0.3400E+02
     -7.762  0.0000E+00  0.3400E+02
     -7.662  0.0000E+00  0.3400E+02
     -7.562  0.0000E+00  0.3600E+02
     -7.462  0.0000E+00  0.3600E+02
     -7.361  0.1669E+01  0.3606E+02
     -7.261  0.3953E+01  0.3634E+02
     -7.161  0.5278E+01  0.3684E+02
     -7.060  0.4072E+01  0.3731E+02
     -6.960  0.2867E+01  0.3766E+02
     -6.860  0.1662E+01  0.3789E+02
     -6.760  0.2981E+01  0.3810E+02
     -6.659  0.3455E+02  0.3930E+02
     -6.559  0.1590E+01  0.4200E+02
     -6.459  0.2152E+02  0.4353E+02
     -6.358  0.5906E+02  0.4667E+02
     -6.258  0.2794E+01  0.4762E+02
     -6.158  0.1774E+01  0.4785E+02
     -6.058  0.1260E+02  0.4819E+02
     -5.957  0.3238E+02  0.5099E+02
     -5.857  0.2366E+02  0.5401E+02
     -5.757  0.1925E+02  0.5643E+02
     -5.656  0.6913E+01  0.5870E+02
     -5.556  0.1360E+02  0.5989E+02
     -5.456  0.9153E+01  0.6103E+02
     -5.356  0.4706E+01  0.6172E+02
     -5.255  0.8037E+00  0.6198E+02
     -5.155  0.1094E+02  0.6427E+02
     -5.055  0.0000E+00  0.6600E+02
     -4.954  0.1234E+02  0.6604E+02
     -4.854  0.8097E+01  0.6707E+02
     -4.754  0.3850E+01  0.6767E+02
     -4.654  0.4586E+01  0.6801E+02
     -4.553  0.8535E+01  0.6865E+02
     -4.453  0.1333E+02  0.7118E+02
     -4.353  0.2259E+02  0.7298E+02
     -4.252  0.2092E+02  0.7487E+02
     -4.152  0.1878E+02  0.7708E+02
     -4.052  0.4564E+01  0.7825E+02
     -3.952  0.2385E+01  0.7844E+02
     -3.851  0.2451E+02  0.7978E+02
     -3.751  0.1439E+02  0.8302E+02
     -3.651  0.5849E+01  0.8448E+02
     -3.550  0.6377E+01  0.8513E+02
     -3.450  0.6251E+01  0.8577E+02
     -3.350  0.6125E+01  0.8639E+02
     -3.250  0.6000E+01  0.8699E+02
     -3.149  0.6947E+01  0.8761E+02
     -3.049  0.5298E+01  0.9086E+02
     -2.949  0.1049E+02  0.9174E+02
     -2.848  0.3663E+02  0.9459E+02
     -2.748  0.3243E+02  0.9844E+02
     -2.648  0.1503E+02  0.1008E+03
     -2.548  0.7690E+01  0.1018E+03
     -2.447  0.6868E+01  0.1025E+03
     -2.347  0.2780E+02  0.1055E+03
     -2.247  0.2705E+01  0.1074E+03
     -2.147  0.1375E+02  0.1082E+03
     -2.046  0.6327E+01  0.1092E+03
     -1.946  0.5897E+01  0.1096E+03
     -1.846  0.2186E+02  0.1110E+03
     -1.745  0.3291E+02  0.1140E+03
     -1.645  0.3450E+02  0.1173E+03
     -1.545  0.3299E+02  0.1209E+03
     -1.445  0.1671E+02  0.1233E+03
     -1.344  0.1132E+02  0.1247E+03
     -1.244  0.1254E+02  0.1272E+03
     -1.144  0.8563E+01  0.1283E+03
     -1.043  0.1137E+02  0.1292E+03
     -0.943  0.3192E+02  0.1311E+03
     -0.843  0.1727E+02  0.1344E+03
     -0.743  0.1000E+02  0.1356E+03
     -0.642  0.4879E+02  0.1380E+03
     -0.542  0.1754E+02  0.1422E+03
     -0.442  0.1271E+02  0.1440E+03
     -0.341  0.1132E+02  0.1449E+03
     -0.241  0.1963E+02  0.1464E+03
     -0.141  0.1441E+02  0.1479E+03
     -0.041  0.2265E+02  0.1498E+03
      0.060  0.6744E+02  0.1522E+03
      0.160  0.1677E+02  0.1557E+03
      0.260  0.3713E+02  0.1587E+03
      0.361  0.8107E+01  0.1603E+03
      0.461  0.1793E+02  0.1616E+03
      0.561  0.2505E+02  0.1644E+03
      0.661  0.2603E+02  0.1679E+03
      0.762  0.7997E+01  0.1693E+03
      0.862  0.4670E+02  0.1710E+03
      0.962  0.1759E+02  0.1748E+03
      1.063  0.1471E+02  0.1771E+03
      1.163  0.1579E+02  0.1794E+03
      1.263  0.2076E+02  0.1814E+03
      1.363  0.2513E+02  0.1851E+03
      1.464  0.4908E+02  0.1887E+03
      1.564  0.7180E+02  0.1938E+03
      1.664  0.2977E+02  0.1983E+03
      1.765  0.1038E+02  0.2009E+03
      1.865  0.8471E+01  0.2018E+03
      1.965  0.6517E+01  0.2025E+03
      2.065  0.4563E+01  0.2031E+03
      2.166  0.2155E+02  0.2038E+03
      2.266  0.0000E+00  0.2040E+03
      2.366  0.0000E+00  0.2040E+03
      2.467  0.0000E+00  0.2040E+03
      2.567  0.0000E+00  0.2040E+03
      2.667  0.0000E+00  0.2040E+03
      2.767  0.0000E+00  0.2040E+03
      2.868  0.0000E+00  0.2040E+03
      2.968  0.0000E+00  0.2040E+03
      3.068  0.0000E+00  0.2040E+03
      3.169  0.0000E+00  0.2040E+03
      3.269  0.0000E+00  0.2040E+03
      3.369  0.0000E+00  0.2040E+03
      3.469  0.0000E+00  0.2040E+03
      3.570  0.0000E+00  0.2040E+03
      3.670  0.0000E+00  0.2040E+03
      3.770  0.0000E+00  0.2040E+03
      3.870  0.0000E+00  0.2040E+03
      3.971  0.0000E+00  0.2040E+03
      4.071  0.0000E+00  0.2040E+03
      4.171  0.0000E+00  0.2040E+03
