 vasp.5.4.4.18Apr17-6-g9f103f2a35 (build Jun 08 2018 12:06:12) complex          
  
 executed on             LinuxIFC date 2019.06.06  06:44:21
 running on   72 total cores
 distrk:  each k-point on   72 cores,    1 groups
 distr:  one band on NCORES_PER_BAND=  24 cores,    3 groups


--------------------------------------------------------------------------------------------------------


 INCAR:
 POTCAR:    PAW_PBE Mg 13Apr2007                  
 POTCAR:    PAW_PBE O 08Apr2002                   
 POTCAR:    PAW_PBE H 15Jun2001                   

 ----------------------------------------------------------------------------- 
|                                                                             |
|           W    W    AA    RRRRR   N    N  II  N    N   GGGG   !!!           |
|           W    W   A  A   R    R  NN   N  II  NN   N  G    G  !!!           |
|           W    W  A    A  R    R  N N  N  II  N N  N  G       !!!           |
|           W WW W  AAAAAA  RRRRR   N  N N  II  N  N N  G  GGG   !            |
|           WW  WW  A    A  R   R   N   NN  II  N   NN  G    G                |
|           W    W  A    A  R    R  N    N  II  N    N   GGGG   !!!           |
|                                                                             |
|      For optimal performance we recommend to set                            |
|        NCORE= 4 - approx SQRT( number of cores)                             |
|      NCORE specifies how many cores store one orbital (NPAR=cpu/NCORE).     |
|      This setting can  greatly improve the performance of VASP for DFT.     |
|      The default,   NCORE=1            might be grossly inefficient         |
|      on modern multi-core architectures or massively parallel machines.     |
|      Do your own testing !!!!                                               |
|      Unfortunately you need to use the default for GW and RPA calculations. |
|      (for HF NCORE is supported but not extensively tested yet)             |
|                                                                             |
 ----------------------------------------------------------------------------- 


 ----------------------------------------------------------------------------- 
|                                                                             |
|  ADVICE TO THIS USER RUNNING 'VASP/VAMP'   (HEAR YOUR MASTER'S VOICE ...):  |
|                                                                             |
|      You have switched on vdW-DFT.                                          |
|      This routine was written and supplied by Jiri Klimes.                  |
|      We recommed that you carefully read and cite the following             |
|      publication                                                            |
|      J. Klimes, D.R. Bowler, A. Michelides                                  |
|        J. Phys.: Cond Matt. 22 022201 (2010)                                |
|      J. Klimes, D.R. Bowler, A. Michelides                                  |
|        Phys. Rev. B. 83, 195131 (2011)                                      |
|      and references therein.                                                |
|                                                                             |
 ----------------------------------------------------------------------------- 

 POTCAR:    PAW_PBE Mg 13Apr2007                  
   VRHFIN =Mg: s2p0                                                             
   LEXCH  = PE                                                                  
   EATOM  =    23.0369 eV,    1.6932 Ry                                         
                                                                                
   TITEL  = PAW_PBE Mg 13Apr2007                                                
   LULTRA =        F    use ultrasoft PP ?                                      
   IUNSCR =        1    unscreen: 0-lin 1-nonlin 2-no                           
   RPACOR =    1.500    partial core radius                                     
   POMASS =   24.305; ZVAL   =    2.000    mass and valenz                      
   RCORE  =    2.000    outmost cutoff radius                                   
   RWIGS  =    2.880; RWIGS  =    1.524    wigner-seitz radius (au A)           
   ENMAX  =  200.000; ENMIN  =  100.000 eV                                      
   RCLOC  =    1.506    cutoff for local pot                                    
   LCOR   =        T    correct aug charges                                     
   LPAW   =        T    paw PP                                                  
   EAUG   =  454.734                                                            
   DEXC   =    0.000                                                            
   RMAX   =    2.045    core radius for proj-oper                               
   RAUG   =    1.300    factor for augmentation sphere                          
   RDEP   =    2.025    radius for radial grids                                 
   RDEPT  =    1.942    core radius for aug-charge                              
                                                                                
   Atomic configuration                                                         
    6 entries                                                                   
     n  l   j            E        occ.                                          
     1  0  0.50     -1259.6230   2.0000                                         
     2  0  0.50       -79.8442   2.0000                                         
     2  1  1.50       -46.6121   6.0000                                         
     3  0  0.50        -4.7055   2.0000                                         
     3  1  0.50        -1.3660   0.0000                                         
     3  2  1.50        -1.3606   0.0000                                         
   Description                                                                  
     l       E           TYP  RCUT    TYP  RCUT                                 
     0     -4.7054661     23  2.000                                             
     0     27.2116520     23  2.000                                             
     1      1.3605826     23  2.000                                             
     1     27.2116520     23  2.000                                             
     2     -1.3605826     23  2.000                                             
  local pseudopotential read in
  partial core-charges read in
  partial kinetic energy density read in
  atomic valenz-charges read in
  non local Contribution for L=           0  read in
    real space projection operators read in
  non local Contribution for L=           0  read in
    real space projection operators read in
  non local Contribution for L=           1  read in
    real space projection operators read in
  non local Contribution for L=           1  read in
    real space projection operators read in
  non local Contribution for L=           2  read in
    real space projection operators read in
    PAW grid and wavefunctions read in
 
   number of l-projection  operators is LMAX  =           5
   number of lm-projection operators is LMMAX =          13
 
 POTCAR:    PAW_PBE O 08Apr2002                   
   VRHFIN =O: s2p4                                                              
   LEXCH  = PE                                                                  
   EATOM  =   432.3788 eV,   31.7789 Ry                                         
                                                                                
   TITEL  = PAW_PBE O 08Apr2002                                                 
   LULTRA =        F    use ultrasoft PP ?                                      
   IUNSCR =        1    unscreen: 0-lin 1-nonlin 2-no                           
   RPACOR =    1.200    partial core radius                                     
   POMASS =   16.000; ZVAL   =    6.000    mass and valenz                      
   RCORE  =    1.520    outmost cutoff radius                                   
   RWIGS  =    1.550; RWIGS  =    0.820    wigner-seitz radius (au A)           
   ENMAX  =  400.000; ENMIN  =  300.000 eV                                      
   ICORE  =        2    local potential                                         
   LCOR   =        T    correct aug charges                                     
   LPAW   =        T    paw PP                                                  
   EAUG   =  605.392                                                            
   DEXC   =    0.000                                                            
   RMAX   =    1.553    core radius for proj-oper                               
   RAUG   =    1.300    factor for augmentation sphere                          
   RDEP   =    1.550    radius for radial grids                                 
   RDEPT  =    1.329    core radius for aug-charge                              
                                                                                
   Atomic configuration                                                         
    4 entries                                                                   
     n  l   j            E        occ.                                          
     1  0  0.50      -514.6923   2.0000                                         
     2  0  0.50       -23.9615   2.0000                                         
     2  1  0.50        -9.0305   4.0000                                         
     3  2  1.50        -9.5241   0.0000                                         
   Description                                                                  
     l       E           TYP  RCUT    TYP  RCUT                                 
     0    -23.9615318     23  1.200                                             
     0     -9.5240782     23  1.200                                             
     1     -9.0304911     23  1.520                                             
     1      8.1634956     23  1.520                                             
     2     -9.5240782      7  1.500                                             
  local pseudopotential read in
  partial core-charges read in
  partial kinetic energy density read in
  kinetic energy density of atom read in
  atomic valenz-charges read in
  non local Contribution for L=           0  read in
    real space projection operators read in
  non local Contribution for L=           0  read in
    real space projection operators read in
  non local Contribution for L=           1  read in
    real space projection operators read in
  non local Contribution for L=           1  read in
    real space projection operators read in
    PAW grid and wavefunctions read in
 
   number of l-projection  operators is LMAX  =           4
   number of lm-projection operators is LMMAX =           8
 
 POTCAR:    PAW_PBE H 15Jun2001                   
   VRHFIN =H: ultrasoft test                                                    
   LEXCH  = PE                                                                  
   EATOM  =    12.4884 eV,    0.9179 Ry                                         
                                                                                
   TITEL  = PAW_PBE H 15Jun2001                                                 
   LULTRA =        F    use ultrasoft PP ?                                      
   IUNSCR =        0    unscreen: 0-lin 1-nonlin 2-no                           
   RPACOR =    0.000    partial core radius                                     
   POMASS =    1.000; ZVAL   =    1.000    mass and valenz                      
   RCORE  =    1.100    outmost cutoff radius                                   
   RWIGS  =    0.700; RWIGS  =    0.370    wigner-seitz radius (au A)           
   ENMAX  =  250.000; ENMIN  =  200.000 eV                                      
   RCLOC  =    0.701    cutoff for local pot                                    
   LCOR   =        T    correct aug charges                                     
   LPAW   =        T    paw PP                                                  
   EAUG   =  400.000                                                            
   RMAX   =    1.123    core radius for proj-oper                               
   RAUG   =    1.200    factor for augmentation sphere                          
   RDEP   =    1.112    radius for radial grids                                 
   RDEPT  =    0.926    core radius for aug-charge                              
                                                                                
   Atomic configuration                                                         
    2 entries                                                                   
     n  l   j            E        occ.                                          
     1  0  0.50        -6.4927   1.0000                                         
     2  1  0.50        -3.4015   0.0000                                         
   Description                                                                  
     l       E           TYP  RCUT    TYP  RCUT                                 
     0     -6.4927494     23  1.100                                             
     0      6.8029130     23  1.100                                             
     1     -4.0817478     23  1.100                                             
  local pseudopotential read in
  atomic valenz-charges read in
  non local Contribution for L=           0  read in
    real space projection operators read in
  non local Contribution for L=           0  read in
    real space projection operators read in
  non local Contribution for L=           1  read in
    real space projection operators read in
    PAW grid and wavefunctions read in
 
   number of l-projection  operators is LMAX  =           3
   number of lm-projection operators is LMMAX =           5
 
 Optimization of the real space projectors (new method)

 maximal supplied QI-value         = 18.90
 optimisation between [QCUT,QGAM] = [ 11.53, 23.24] = [ 37.21,151.29] Ry 
 Optimized for a Real-space Cutoff    1.28 Angstroem

   l    n(q)    QCUT    max X(q) W(low)/X(q) W(high)/X(q)  e(spline) 
   0      9    11.527    28.265    0.62E-04    0.53E-04    0.73E-07
   0      9    11.527    10.429    0.52E-04    0.40E-04    0.58E-07
   1      8    11.527    13.073    0.98E-04    0.18E-03    0.86E-07
   1      8    11.527     9.625    0.79E-04    0.15E-03    0.74E-07
   2      8    11.527     4.652    0.22E-03    0.72E-04    0.47E-07
 Optimization of the real space projectors (new method)

 maximal supplied QI-value         = 24.76
 optimisation between [QCUT,QGAM] = [ 11.64, 23.27] = [ 37.91,151.63] Ry 
 Optimized for a Real-space Cutoff    1.14 Angstroem

   l    n(q)    QCUT    max X(q) W(low)/X(q) W(high)/X(q)  e(spline) 
   0      8    11.635    20.381    0.10E-03    0.33E-03    0.24E-06
   0      8    11.635    15.268    0.11E-03    0.35E-03    0.26E-06
   1      7    11.635     5.964    0.24E-03    0.31E-03    0.30E-06
   1      7    11.635     5.382    0.22E-03    0.25E-03    0.26E-06
 Optimization of the real space projectors (new method)

 maximal supplied QI-value         = 34.20
 optimisation between [QCUT,QGAM] = [ 11.63, 23.26] = [ 37.87,151.49] Ry 
 Optimized for a Real-space Cutoff    1.21 Angstroem

   l    n(q)    QCUT    max X(q) W(low)/X(q) W(high)/X(q)  e(spline) 
   0      8    11.629    19.460    0.17E-03    0.34E-03    0.21E-06
   0      8    11.629    12.209    0.16E-03    0.33E-03    0.21E-06
   1      8    11.629     4.655    0.18E-03    0.16E-03    0.26E-06

 ----------------------------------------------------------------------------- 
|                                                                             |
|  ADVICE TO THIS USER RUNNING 'VASP/VAMP'   (HEAR YOUR MASTER'S VOICE ...):  |
|                                                                             |
|      You enforced a specific xc-type in the INCAR file,                     |
|      a different type was found on the POTCAR file                          |
|          I HOPE YOU KNOW, WHAT YOU ARE  DOING                               |
|                                                                             |
 ----------------------------------------------------------------------------- 

  PAW_PBE Mg 13Apr2007                  :
 energy of atom  1       EATOM=  -23.0369
 kinetic energy error for atom=    0.0000 (will be added to EATOM!!)
  PAW_PBE O 08Apr2002                   :
 energy of atom  2       EATOM= -432.3788
 kinetic energy error for atom=    0.0208 (will be added to EATOM!!)
  PAW_PBE H 15Jun2001                   :
 energy of atom  3       EATOM=  -12.4884
 kinetic energy error for atom=    0.0014 (will be added to EATOM!!)
 
 
 POSCAR: Mg   O    H                             
  positions in direct lattice
  velocities in cartesian coordinates
 exchange correlation table for  LEXCH =       42
   RHO(1)=    0.500       N(1)  =     2000
   RHO(2)=  100.500       N(2)  =     4000

 VTST: version 3.2, (02/03/18)

 CHAIN: initializing optimizer
 
 OPT: Using VASP Dynamics algorithm
 CHAIN: Read ICHAIN            0
 
 POSCAR: Mg   O    H                             
  positions in direct lattice
  velocities in cartesian coordinates
 


--------------------------------------------------------------------------------------------------------


 ion  position               nearest neighbor table
   1  0.000  0.000  0.000-   7 3.19  25 3.19  19 3.19  10 3.19   4 3.19  13 3.19  44 3.19  32 3.19
                            28 3.19
   2  0.998  0.999  0.158-  33 3.07  29 3.12  44 3.13  45 3.14  28 3.14  32 3.14  20 3.17   5 3.18
                            26 3.18  14 3.19  11 3.20   8 3.20
   3  0.995  0.998  0.328-  46 2.22   9 3.20  21 3.21  15 3.22  12 3.23  27 3.24   6 3.24  45 3.49
                            29 3.52  33 3.60
   4  0.000  0.333  0.000-  22 3.19  13 3.19  19 3.19  16 3.19   1 3.19   7 3.19  40 3.19  30 3.19
                            28 3.19
   5  0.999  0.333  0.157-  40 3.12  28 3.13  30 3.13  41 3.14  31 3.16  29 3.17   8 3.18   2 3.18
                            17 3.18  14 3.18  23 3.19  20 3.19
   6  0.997  0.332  0.310-  31 3.05  29 3.06  41 3.07  15 3.15   9 3.21  21 3.21  24 3.22  18 3.23
                             3 3.24
   7  0.000  0.667  0.000-   1 3.19  10 3.19  25 3.19  16 3.19  22 3.19   4 3.19  42 3.19  32 3.19
                            30 3.19
   8  0.998  0.664  0.157-  33 3.09  42 3.11  30 3.12  32 3.13  31 3.15  23 3.18   5 3.18  43 3.18
                            26 3.18  17 3.18   2 3.20  11 3.20
   9  0.998  0.668  0.312-  43 3.09  31 3.13  33 3.14  12 3.15  27 3.19  18 3.19   3 3.20   6 3.21
                            24 3.29
  10  0.333  0.000  0.000-  16 3.19   7 3.19  19 3.19   1 3.19  22 3.19  13 3.19  32 3.19  34 3.19
                            38 3.19
  11  0.333  0.999  0.157-  38 3.12  32 3.12  33 3.12  34 3.12  39 3.16  35 3.17  23 3.18  20 3.18
                            17 3.18  14 3.19   2 3.20   8 3.20
  12  0.327  0.998  0.308-  35 3.03  33 3.04  39 3.05   9 3.15  24 3.19  15 3.22  21 3.22   3 3.23
                            18 3.26
  13  0.333  0.333  0.000-  22 3.19   4 3.19  10 3.19   1 3.19  25 3.19  16 3.19  28 3.19  36 3.19
                            34 3.19
  14  0.332  0.333  0.157-  28 3.12  34 3.13  36 3.13  35 3.13  37 3.14  29 3.15   5 3.18  17 3.18
                            23 3.18  26 3.19   2 3.19  11 3.19
  15  0.327  0.334  0.314-  29 3.13   6 3.15  37 3.15  27 3.17  35 3.19  12 3.22  18 3.22   3 3.22
                            24 3.25
  16  0.333  0.667  0.000-  10 3.19  19 3.19   7 3.19  25 3.19   4 3.19  13 3.19  38 3.19  30 3.19
                            36 3.19
  17  0.332  0.666  0.158-  39 3.10  37 3.11  31 3.11  30 3.14  36 3.14  38 3.15   5 3.18  14 3.18
                            20 3.18  11 3.18   8 3.18  26 3.19
  18  0.325  0.665  0.330-  51 2.20   9 3.19  15 3.22   6 3.23  21 3.24  12 3.26  27 3.28  31 3.56
                            39 3.60  37 3.62
  19  0.667  0.000  0.000-  25 3.19  16 3.19   1 3.19  10 3.19   4 3.19  22 3.19  38 3.19  44 3.19
                            40 3.19
  20  0.666  0.999  0.157-  38 3.12  44 3.12  41 3.12  40 3.13  39 3.14  45 3.17   2 3.17  26 3.18
                            11 3.18  17 3.18   5 3.19  23 3.19
  21  0.662  0.995  0.313-  45 3.11  39 3.12  41 3.16  27 3.16  24 3.17   3 3.21   6 3.21  12 3.22
                            18 3.24
  22  0.667  0.333  0.000-  13 3.19   4 3.19  10 3.19  25 3.19   7 3.19  19 3.19  34 3.19  42 3.19
                            40 3.19
  23  0.666  0.333  0.158-  41 3.10  35 3.11  43 3.12  34 3.14  40 3.15  42 3.15   8 3.18  11 3.18
                            26 3.18  14 3.18   5 3.19  20 3.19
  24  0.660  0.323  0.324-  49 2.15  21 3.17  12 3.19   6 3.22  15 3.25  27 3.27   9 3.29  35 3.39
                            41 3.42  43 3.42
  25  0.667  0.667  0.000-   1 3.19  19 3.19   7 3.19  16 3.19  22 3.19  13 3.19  36 3.19  42 3.19
                            44 3.19
  26  0.666  0.666  0.158-  42 3.14  36 3.14  44 3.14  37 3.15  45 3.16  43 3.16   8 3.18   2 3.18
                            23 3.18  20 3.18  14 3.19  17 3.19
  27  0.661  0.664  0.312-  37 3.09  45 3.09  43 3.09  21 3.16  15 3.17   9 3.19   3 3.24  24 3.27
                            18 3.28
  28  0.111  0.222  0.080-  14 3.12   5 3.13   2 3.14  44 3.19  32 3.19  40 3.19  34 3.19  36 3.19
                            30 3.19   1 3.19  13 3.19   4 3.19
  29  0.110  0.217  0.236-   6 3.06   2 3.12  15 3.13  45 3.14  33 3.15  14 3.15   5 3.17  35 3.17
                            37 3.20  41 3.23  31 3.23   3 3.52
  30  0.111  0.556  0.080-   8 3.12   5 3.13  17 3.14  32 3.19  42 3.19  38 3.19  40 3.19  36 3.19
                            28 3.19  16 3.19   7 3.19   4 3.19
  31  0.113  0.558  0.236-   6 3.05  17 3.11   9 3.13  39 3.13  37 3.14   8 3.15   5 3.16  33 3.17
                            43 3.20  29 3.23  41 3.24  18 3.56
  32  0.111  0.889  0.080-  11 3.12   8 3.13   2 3.14  28 3.19  34 3.19  44 3.19  30 3.19  42 3.19
                            38 3.19  10 3.19   1 3.19   7 3.19
  33  0.107  0.886  0.233-  12 3.04   2 3.07   8 3.09  11 3.12  45 3.14   9 3.14  29 3.15  31 3.17
                            43 3.19  39 3.22  35 3.24   3 3.60
  34  0.444  0.222  0.080-  11 3.12  14 3.13  23 3.14  38 3.19  40 3.19  32 3.19  42 3.19  28 3.19
                            36 3.19  22 3.19  10 3.19  13 3.19
  35  0.446  0.225  0.235-  12 3.03  23 3.11  43 3.12  14 3.13  41 3.16  11 3.17  29 3.17  37 3.18
                            15 3.19  33 3.24  39 3.25  24 3.39
  36  0.444  0.556  0.080-  14 3.13  26 3.14  17 3.14  42 3.19  38 3.19  44 3.19  30 3.19  28 3.19
                            34 3.19  25 3.19  13 3.19  16 3.19
  37  0.441  0.555  0.235-  27 3.09  17 3.11  39 3.13  31 3.14  14 3.14  26 3.15  15 3.15  35 3.18
                            29 3.20  45 3.22  43 3.22  18 3.62
  38  0.444  0.889  0.080-  11 3.12  20 3.12  17 3.15  40 3.19  34 3.19  44 3.19  36 3.19  30 3.19
                            32 3.19  19 3.19  16 3.19  10 3.19
  39  0.443  0.884  0.235-  12 3.05  17 3.10  21 3.12  31 3.13  37 3.13  20 3.14  11 3.16  41 3.18
                            45 3.20  33 3.22  35 3.25  18 3.60
  40  0.778  0.222  0.080-   5 3.12  20 3.13  23 3.15  38 3.19  34 3.19  44 3.19  28 3.19  30 3.19
                            42 3.19   4 3.19  19 3.19  22 3.19
  41  0.773  0.220  0.235-   6 3.07  23 3.10  20 3.12   5 3.14  43 3.15  35 3.16  21 3.16  39 3.18
                            45 3.19  29 3.23  31 3.24  24 3.42
  42  0.778  0.556  0.080-   8 3.11  26 3.14  23 3.15  36 3.19  44 3.19  30 3.19  32 3.19  34 3.19
                            40 3.19  25 3.19   7 3.19  22 3.19
  43  0.775  0.550  0.236-  27 3.09   9 3.09  23 3.12  35 3.12  41 3.15  26 3.16   8 3.18  33 3.19
                            31 3.20  45 3.22  37 3.22  24 3.42
  44  0.778  0.889  0.080-  20 3.12   2 3.13  26 3.14  28 3.19  40 3.19  42 3.19  32 3.19  38 3.19
                            36 3.19   1 3.19  19 3.19  25 3.19
  45  0.780  0.889  0.236-  27 3.09  21 3.11   2 3.14  33 3.14  29 3.14  26 3.16  20 3.17  41 3.19
                            39 3.20  37 3.22  43 3.22   3 3.49
  46  0.971  0.986  0.396-  53 0.99  52 0.99   3 2.22
  47  0.262  0.964  0.412-  54 0.98  55 1.00
  48  0.893  0.241  0.410-  56 0.98  57 1.01
  49  0.651  0.332  0.390-  59 0.99  58 0.99  24 2.15
  50  0.650  0.621  0.402-  60 0.98  61 0.99
  51  0.292  0.687  0.396-  63 0.98  62 1.00  18 2.20
  52  0.954  0.073  0.408-  46 0.99
  53  0.063  0.989  0.410-  46 0.99
  54  0.366  0.065  0.415-  47 0.98
  55  0.242  0.959  0.381-  47 1.00
  56  0.995  0.344  0.409-  48 0.98
  57  0.865  0.212  0.381-  48 1.01
  58  0.665  0.438  0.399-  49 0.99
  59  0.731  0.314  0.404-  49 0.99
  60  0.732  0.736  0.400-  50 0.98
  61  0.557  0.606  0.385-  50 0.99
  62  0.286  0.784  0.406-  51 1.00
  63  0.356  0.669  0.417-  51 0.98
 
  LATTYP: Found a hexagonal cell.
 ALAT       =     9.5557527542
 C/A-ratio  =     3.4141837076
  
  Lattice vectors:
  
 A1 = (   9.5557527542,   0.0000000000,   0.0000000000)
 A2 = (  -4.7778763771,   8.2755246374,   0.0000000000)
 A3 = (   0.0000000000,   0.0000000000,  32.6250953674)


Analysis of symmetry for initial positions (statically):
=====================================================================
 Subroutine PRICEL returns:
 Original cell was already a primitive cell.
 

 Routine SETGRP: Setting up the symmetry group for a 
 hexagonal supercell.


 Subroutine GETGRP returns: Found  1 space group operations
 (whereof  1 operations were pure point group operations)
 out of a pool of 24 trial point group operations.


The static configuration has the point symmetry C_1 .


Analysis of symmetry for dynamics (positions and initial velocities):
=====================================================================
 Subroutine PRICEL returns:
 Original cell was already a primitive cell.
 

 Routine SETGRP: Setting up the symmetry group for a 
 hexagonal supercell.


 Subroutine GETGRP returns: Found  1 space group operations
 (whereof  1 operations were pure point group operations)
 out of a pool of 24 trial point group operations.


The dynamic configuration has the point symmetry C_1 .


Analysis of constrained symmetry for selective dynamics:
=====================================================================
 Subroutine PRICEL returns:
 Original cell was already a primitive cell.
 

 Routine SETGRP: Setting up the symmetry group for a 
 hexagonal supercell.


 Subroutine GETGRP returns: Found  1 space group operations
 (whereof  1 operations were pure point group operations)
 out of a pool of 24 trial point group operations.


The constrained configuration has the point symmetry C_1 .


 Subroutine INISYM returns: Found  1 space group operations
 (whereof  1 operations are pure point group operations),
 and found     1 'primitive' translations

 
 
 KPOINTS: Auto                                    

Automatic generation of k-mesh.
Space group operators:
 irot       det(A)        alpha          n_x          n_y          n_z        tau_x        tau_y        tau_z
    1     1.000000     0.000000     1.000000     0.000000     0.000000     0.000000     0.000000     0.000000
 
 Subroutine IBZKPT returns following result:
 ===========================================
 
 Found      5 irreducible k-points:
 
 Following reciprocal coordinates:
            Coordinates               Weight
  0.000000  0.000000  0.000000      1.000000
  0.333333 -0.000000  0.000000      2.000000
  0.000000  0.333333  0.000000      2.000000
  0.333333  0.333333  0.000000      2.000000
 -0.333333  0.333333  0.000000      2.000000
 
 Following cartesian coordinates:
            Coordinates               Weight
  0.000000  0.000000  0.000000      1.000000
  0.034883  0.020140  0.000000      2.000000
  0.000000  0.040279  0.000000      2.000000
  0.034883  0.060419  0.000000      2.000000
 -0.034883  0.020140  0.000000      2.000000
 
 TETIRR: Found     24 inequivalent tetrahedra from       54


--------------------------------------------------------------------------------------------------------




 Dimension of arrays:
   k-points           NKPTS =      5   k-points in BZ     NKDIM =      5   number of bands    NBANDS=    102
   number of dos      NEDOS =    301   number of ions     NIONS =     63
   non local maximal  LDIM  =      5   non local SUM 2l+1 LMDIM =     13
   total plane-waves  NPLWV = ******
   max r-space proj   IRMAX =   4509   max aug-charges    IRDMAX=  21536
   dimension x,y,z NGX =    72 NGY =   72 NGZ =  250
   dimension x,y,z NGXF=   144 NGYF=  144 NGZF=  500
   support grid    NGXF=   144 NGYF=  144 NGZF=  500
   ions per type =              45   6  12
   NGX,Y,Z   is equivalent  to a cutoff of  12.53, 12.53, 12.74 a.u.
   NGXF,Y,Z  is equivalent  to a cutoff of  25.05, 25.05, 25.48 a.u.

 SYSTEM =  Mg_slab_in_a_box                        
 POSCAR =  Mg   O    H                             

 Startparameter for this run:
   NWRITE =      2    write-flag & timer
   PREC   = accura    normal or accurate (medium, high low for compatibility)
   ISTART =      0    job   : 0-new  1-cont  2-samecut
   ICHARG =      2    charge: 1-file 2-atom 10-const
   ISPIN  =      1    spin polarized calculation?
   LNONCOLLINEAR =      F non collinear calculations
   LSORBIT =      F    spin-orbit coupling
   INIWAV =      1    electr: 0-lowe 1-rand  2-diag
   LASPH  =      T    aspherical Exc in radial PAW
   METAGGA=      F    non-selfconsistent MetaGGA calc.

 Electronic Relaxation 1
   ENCUT  =  520.0 eV  38.22 Ry    6.18 a.u.  17.77 17.77 60.66*2*pi/ulx,y,z
   ENINI  =  520.0     initial cutoff
   ENAUG  =  605.4 eV  augmentation charge cutoff
   NELM   =    300;   NELMIN=  6; NELMDL=-12     # of ELM steps 
   EDIFF  = 0.5E-05   stopping-criterion for ELM
   LREAL  =      T    real-space projection
   NLSPLINE    = F    spline interpolate recip. space projectors
   LCOMPAT=      F    compatible to vasp.4.4
   GGA_COMPAT  = T    GGA compatible to vasp.4.4-vasp.4.6
   LMAXPAW     = -100 max onsite density
   LMAXMIX     =    2 max onsite mixed and CHGCAR
   VOSKOWN=      0    Vosko Wilk Nusair interpolation
   ROPT   =   -0.00025  -0.00025  -0.00025
 Ionic relaxation
   EDIFFG = 0.5E-04   stopping-criterion for IOM
   NSW    =      0    number of steps for IOM
   NBLOCK =      1;   KBLOCK =      1    inner block; outer block 
   IBRION =     -1    ionic relax: 0-MD 1-quasi-New 2-CG
   NFREE  =      0    steps in history (QN), initial steepest desc. (CG)
   ISIF   =      2    stress and relaxation
   IWAVPR =     10    prediction:  0-non 1-charg 2-wave 3-comb
   ISYM   =      2    0-nonsym 1-usesym 2-fastsym
   LCORR  =      T    Harris-Foulkes like correction to forces

   POTIM  = 0.5000    time-step for ionic-motion
   TEIN   =    0.0    initial temperature
   TEBEG  =    0.0;   TEEND  =   0.0 temperature during run
   SMASS  =  -3.00    Nose mass-parameter (am)
   estimated Nose-frequenzy (Omega)   =  0.10E-29 period in steps =****** mass=  -0.209E-26a.u.
   SCALEE = 1.0000    scale energy and forces
   NPACO  =    256;   APACO  = 16.0  distance and # of slots for P.C.
   PSTRESS=    0.0 pullay stress

  Mass of Ions in am
   POMASS =  24.30 16.00  1.00
  Ionic Valenz
   ZVAL   =   2.00  6.00  1.00
  Atomic Wigner-Seitz radii
   RWIGS  =  -1.00 -1.00 -1.00
  virtual crystal weights 
   VCA    =   1.00  1.00  1.00
   NELECT =     138.0000    total number of electrons
   NUPDOWN=      -1.0000    fix difference up-down

 DOS related values:
   EMIN   =  10.00;   EMAX   =-10.00  energy-range for DOS
   EFERMI =   0.00
   ISMEAR =    -5;   SIGMA  =   0.20  broadening in eV -4-tet -1-fermi 0-gaus

 Electronic relaxation 2 (details)
   IALGO  =     48    algorithm
   LDIAG  =      T    sub-space diagonalisation (order eigenvalues)
   LSUBROT=      F    optimize rotation matrix (better conditioning)
   TURBO    =      0    0=normal 1=particle mesh
   IRESTART =      0    0=no restart 2=restart with 2 vectors
   NREBOOT  =      0    no. of reboots
   NMIN     =      0    reboot dimension
   EREF     =   0.00    reference energy to select bands
   IMIX   =      4    mixing-type and parameters
     AMIX     =   0.40;   BMIX     =  1.00
     AMIX_MAG =   1.60;   BMIX_MAG =  1.00
     AMIN     =   0.10
     WC   =   100.;   INIMIX=   1;  MIXPRE=   1;  MAXMIX= -45

 Intra band minimization:
   WEIMIN = 0.0000     energy-eigenvalue tresh-hold
   EBREAK =  0.12E-07  absolut break condition
   DEPER  =   0.30     relativ break condition  

   TIME   =   0.40     timestep for ELM

  volume/ion in A,a.u.               =      40.95       276.36
  Fermi-wavevector in a.u.,A,eV,Ry     =   0.616828  1.165635  5.176694  0.380476
  Thomas-Fermi vector in A             =   1.674695
 
 Write flags
   LWAVE        =      F    write WAVECAR
   LDOWNSAMPLE  =      F    k-point downsampling of WAVECAR
   LCHARG       =      T    write CHGCAR
   LVTOT        =      F    write LOCPOT, total local potential
   LVHAR        =      T    write LOCPOT, Hartree potential only
   LELF         =      F    write electronic localiz. function (ELF)
   LORBIT       =      0    0 simple, 1 ext, 2 COOP (PROOUT), +10 PAW based schemes


 Dipole corrections
   LMONO  =      F    monopole corrections only (constant potential shift)
   LDIPOL =      T    correct potential (dipole corrections)
   IDIPOL =      3    1-x, 2-y, 3-z, 4-all directions 
   EPSILON=  1.0000000 bulk dielectric constant

 Exchange correlation treatment:
   GGA     =    BO    GGA type
   LEXCH   =    42    internal setting for exchange type
   VOSKOWN=      0    Vosko Wilk Nusair interpolation
   LHFCALC =     F    Hartree Fock is set to
   LHFONE  =     F    Hartree Fock one center treatment
   AEXX    =    0.0000 exact exchange contribution

 vdW DFT:
   LUSE_VDW   =     T    switch on vdW DFT
   Zab_VDW    =-.8491    correlation parameter
   PARAM1     =0.1833
   PARAM2     =0.2200
   PARAM3     =0.0000
   -- rVV10 --
   BPARAM     = 6.3000
   CPARAM     = 0.0093

 Linear response parameters
   LEPSILON=     F    determine dielectric tensor
   LRPA    =     F    only Hartree local field effects (RPA)
   LNABLA  =     F    use nabla operator in PAW spheres
   LVEL    =     F    velocity operator in full k-point grid
   LINTERFAST=   F  fast interpolation
   KINTER  =     0    interpolate to denser k-point grid
   CSHIFT  =0.1000    complex shift for real part using Kramers Kronig
   OMEGAMAX=  -1.0    maximum frequency
   DEG_THRESHOLD= 0.2000000E-02 threshold for treating states as degnerate
   RTIME   =   -0.100 relaxation time in fs
  (WPLASMAI=    0.000 imaginary part of plasma frequency in eV, 0.658/RTIME)
   DFIELD  = 0.0000000 0.0000000 0.0000000 field for delta impulse in time
 
 Orbital magnetization related:
   ORBITALMAG=     F  switch on orbital magnetization
   LCHIMAG   =     F  perturbation theory with respect to B field
   DQ        =  0.001000  dq finite difference perturbation B field
   LLRAUG    =     F  two centre corrections for induced B field



--------------------------------------------------------------------------------------------------------


 Static calculation
 charge density and potential will be updated during run
 non-spin polarized calculation
 RMM-DIIS sequential band-by-band
 perform sub-space diagonalisation
    before iterative eigenvector-optimisation
 modified Broyden-mixing scheme, WC =      100.0
 initial mixing is a Kerker type mixing with AMIX =  0.4000 and BMIX =      1.0000
 Hartree-type preconditioning will be used
 using additional bands           33
 real space projection scheme for non local part
 use partial core corrections
 calculate Harris-corrections to forces 
   (improved forces if not selfconsistent)
 use gradient corrections 
 use of overlap-Matrix (Vanderbilt PP)
 Fermi weights with tetrahedron method with Bloechl corrections


--------------------------------------------------------------------------------------------------------


  energy-cutoff  :      520.00
  volume of cell :     2579.96
      direct lattice vectors                 reciprocal lattice vectors
     9.555752754  0.000000000  0.000000000     0.104649003  0.060419130  0.000000000
    -4.777876377  8.275524637  0.000000000     0.000000000  0.120838260  0.000000000
     0.000000000  0.000000000 32.625095367     0.000000000  0.000000000  0.030651251

  length of vectors
     9.555752754  9.555752754 32.625095367     0.120838260  0.120838260  0.030651251


 
 k-points in units of 2pi/SCALE and weight: Auto                                    
   0.00000000  0.00000000  0.00000000       0.111
   0.03488300  0.02013971  0.00000000       0.222
   0.00000000  0.04027942  0.00000000       0.222
   0.03488300  0.06041913  0.00000000       0.222
  -0.03488300  0.02013971  0.00000000       0.222
 
 k-points in reciprocal lattice and weights: Auto                                    
   0.00000000  0.00000000  0.00000000       0.111
   0.33333333 -0.00000000  0.00000000       0.222
   0.00000000  0.33333333  0.00000000       0.222
   0.33333333  0.33333333  0.00000000       0.222
  -0.33333333  0.33333333  0.00000000       0.222
 
 position of ions in fractional coordinates (direct lattice) 
   0.00000000  0.00000000  0.00000000
   0.99839380  0.99934573  0.15781328
   0.99532392  0.99793513  0.32817955
   0.00000001  0.33333336  0.00000000
   0.99937305  0.33257698  0.15732346
   0.99692380  0.33211239  0.30972352
   0.00000002  0.66666672  0.00000000
   0.99833146  0.66446540  0.15712782
   0.99789021  0.66848145  0.31239501
   0.33333334  0.00000000  0.00000000
   0.33323557  0.99939281  0.15703770
   0.32656007  0.99796716  0.30800499
   0.33333335  0.33333336  0.00000000
   0.33238780  0.33259781  0.15731740
   0.32710864  0.33408524  0.31423661
   0.33333336  0.66666672  0.00000000
   0.33222368  0.66568758  0.15793373
   0.32479940  0.66515853  0.33049889
   0.66666668  0.00000000  0.00000000
   0.66579186  0.99852066  0.15721350
   0.66216633  0.99521021  0.31299282
   0.66666668  0.33333336  0.00000000
   0.66562987  0.33264240  0.15803095
   0.65955317  0.32305143  0.32401787
   0.66666670  0.66666672  0.00000000
   0.66624348  0.66580224  0.15780242
   0.66144246  0.66368168  0.31166115
   0.11111113  0.22222222  0.07982145
   0.10956947  0.21720524  0.23569199
   0.11111114  0.55555561  0.07982145
   0.11339064  0.55763518  0.23561670
   0.11111116  0.88888894  0.07982145
   0.10664387  0.88633924  0.23349189
   0.44444450  0.22222222  0.07982145
   0.44554317  0.22514559  0.23536181
   0.44444450  0.55555561  0.07982145
   0.44063742  0.55498428  0.23547088
   0.44444451  0.88888894  0.07982145
   0.44279066  0.88410834  0.23514525
   0.77777779  0.22222222  0.07982145
   0.77309597  0.21983572  0.23472353
   0.77777781  0.55555561  0.07982145
   0.77469107  0.54993953  0.23631053
   0.77777784  0.88888894  0.07982145
   0.77966512  0.88899603  0.23627203
   0.97061938  0.98624579  0.39590463
   0.26214474  0.96407468  0.41165624
   0.89313714  0.24066886  0.41035587
   0.65081677  0.33213733  0.38982655
   0.65009337  0.62129768  0.40194764
   0.29190332  0.68705445  0.39642871
   0.95408408  0.07258670  0.40760855
   0.06278434  0.98893039  0.41031580
   0.36578826  0.06498858  0.41453329
   0.24180005  0.95856240  0.38135359
   0.99478135  0.34431189  0.40866287
   0.86479229  0.21177932  0.38070236
   0.66520847  0.43815931  0.39863486
   0.73124842  0.31387826  0.40419478
   0.73244928  0.73614401  0.39970167
   0.55725921  0.60647627  0.38520549
   0.28626555  0.78364127  0.40557171
   0.35631340  0.66920628  0.41679644
 
 position of ions in cartesian coordinates  (Angst):
   0.00000000  0.00000000  0.00000000
   4.76565394  8.27011024  5.14867345
   4.74305864  8.25843674 10.70688897
  -1.59262550  2.75850844  0.00000000
   7.96075004  2.75224900  5.13269301
   7.93956545  2.74840426 10.10475942
  -3.18525100  5.51701689  0.00000000
   6.36507503  5.49879979  5.12631024
   6.34167036  5.53203469 10.19191714
   3.18525100  0.00000000  0.00000000
  -1.59065858  8.27049981  5.12336990
  -1.64763645  8.25870183 10.04869212
   1.59262550  2.75850844  0.00000000
   1.58710447  2.75242136  5.13249512
   1.52955137  2.76473060 10.25199944
  -0.00000001  5.51701689  0.00000000
  -0.00592562  5.50891398  5.15260295
  -0.07434246  5.50453583 10.78255775
   6.37050200  0.00000000  0.00000000
   1.59133412  8.26328231  5.12910529
   1.57250636  8.23588658 10.21142069
   4.77787638  2.75850844  0.00000000
   4.77127020  2.75279034  5.15577478
   4.75902719  2.67342011 10.57111403
   3.18525100  5.51701689  0.00000000
   3.18533721  5.50986283  5.14831888
   3.14959161  5.49231410 10.16797466
   0.00000017  1.83900547  2.60418248
   0.00923903  1.79748727  7.68947369
  -1.59262550  4.59751415  2.60418248
  -1.58077898  4.61472366  7.68701743
  -3.18525076  7.35602236  2.60418248
  -3.21575688  7.33492223  7.61769520
   3.18525147  1.83900547  2.60418248
   3.18178257  1.86319791  7.67870137
   1.59262574  4.59751415  2.60418248
   1.55897599  4.59278610  7.68225997
   0.00000039  7.35602236  2.60418248
   0.00703768  7.31646039  7.67163619
   6.37050200  1.83900547  2.60418248
   6.33716604  1.81925591  7.65787770
   4.77787638  4.59751415  2.60418248
   4.77521326  4.55103814  7.70965351
   3.18525124  7.35602236  2.60418248
   3.20277396  7.35690854  7.70839746
   4.56283837  8.16170132 12.91642633
  -2.10123930  7.97822378 13.43032422
   7.38471158  1.99166112 13.38789936
   4.63213299  2.74861066 12.71812830
   3.24364799  5.14156422 13.11358015
  -0.49330524  5.68573602 12.93352445
   8.77018128  0.60069299 13.29826767
  -4.12503552  8.18391779 13.38659207
   3.18487478  0.53781456 13.52418802
  -2.26931117  7.93260678 12.44169726
   7.86080499  2.84936149 13.33266503
   7.25188584  1.75258500 12.42045078
   4.26309664  3.62599820 13.00550023
   5.48795757  2.59750731 13.18689341
   3.48189921  6.09197786 13.04030516
   2.42736256  5.01890935 12.56736595
  -1.00865828  6.48504266 13.23181561
   0.20745787  5.53803310 13.59802346
 


--------------------------------------------------------------------------------------------------------


 k-point  1 :   0.0000 0.0000 0.0000  plane waves:   69403
 k-point  2 :   0.3333-0.0000 0.0000  plane waves:   69509
 k-point  3 :   0.0000 0.3333 0.0000  plane waves:   69509
 k-point  4 :   0.3333 0.3333 0.0000  plane waves:   69474
 k-point  5 :  -0.3333 0.3333 0.0000  plane waves:   69509

 maximum and minimum number of plane-waves per node :      2924     2870

 maximum number of plane-waves:     69509
 maximum index in each direction: 
   IXMAX=   18   IYMAX=   17   IZMAX=   60
   IXMIN=  -18   IYMIN=  -18   IZMIN=  -60


 real space projection operators:
  total allocation   :      22582.38 KBytes
  max/ min on nodes  :       1304.45        527.00


 parallel 3D FFT for wavefunctions:
    minimum data exchange during FFTs selected (reduces bandwidth)
 parallel 3D FFT for charge:
    minimum data exchange during FFTs selected (reduces bandwidth)


 total amount of memory used by VASP MPI-rank0    62227. kBytes
=======================================================================

   base      :      30000. kBytes
   nonlr-proj:       6324. kBytes
   fftplans  :       6459. kBytes
   grid      :      11407. kBytes
   one-center:         24. kBytes
   wavefun   :       8013. kBytes
 
     INWAV:  cpu time    0.0001: real time    0.0005
 Broyden mixing: mesh for mixing (old mesh)
   NGX = 35   NGY = 35   NGZ =121
  (NGX  =144   NGY  =144   NGZ  =500)
  gives a total of 148225 points

 initial charge density was supplied:
 charge density of overlapping atoms calculated
 number of electron     138.0000000 magnetization 
 keeping initial charge density in first step


--------------------------------------------------------------------------------------------------------


 Maximum index for non-local projection operator          297
 Maximum index for augmentation-charges          837 (set IRDMAX)


--------------------------------------------------------------------------------------------------------


 First call to EWALD:  gamma=   0.129
 Maximum number of real-space cells 4x 4x 1
 Maximum number of reciprocal cells 2x 2x 6

    FEWALD:  cpu time    0.0024: real time    0.0024


--------------------------------------- Iteration      1(   1)  ---------------------------------------


vdW kernel read from vdw_kernel.bindat
  0.0000  0.2424  0.5071  0.7962  1.1119  1.4567  1.8333  2.2446  2.6937  3.1842
  3.7199  4.3049  4.9438  5.6415  6.4036  7.2358  8.1446  9.1372 10.2212 11.4050
 12.6979 14.1099 15.6519 17.3360 19.1751 21.1837 23.3773 25.7729 28.3892 31.2465
 34.3669 37.7748 41.4965 45.5611 50.0000
 
    POTLOK:  cpu time    5.6108: real time    5.9811
    SETDIJ:  cpu time    0.1390: real time    0.1391
    EDDIAG:  cpu time    0.4815: real time    0.4825
  RMM-DIIS:  cpu time    1.0493: real time    1.0496
    ORTHCH:  cpu time    0.0700: real time    0.0701
 BZINTS: Fermi energy:  9.582451;138.000000 electrons
         Band energy: 212.746978;  BLOECHL correction: -0.157065
       DOS:  cpu time    0.0032: real time    0.0032
    --------------------------------------------
      LOOP:  cpu time    7.3539: real time    7.7255

 eigenvalue-minimisations  :   510
 total energy-change (2. order) : 0.1245147E+04  (-0.2792751E+04)
 number of electron     138.0000000 magnetization 
 augmentation part      138.0000000 magnetization 

 DIPCOR: dipole corrections for dipol
 direction  3 min pos   355,
 dipolmoment           0.000000      0.000000     -0.000402 electrons x Angstroem
 Tr[quadrupol]     -1835.607661

 energy correction for charged system         0.000000 eV
 dipol+quadrupol energy correction           -0.000000 eV
 added-field ion interaction          0.004375 eV  (added to PSCEN)


 Free energy of the ion-electron system (eV)
  ---------------------------------------------------
  alpha Z        PSCENC =        63.16543847
  Ewald energy   TEWEN  =     12828.47793374
  -Hartree energ DENC   =    -16052.54823292
  -exchange      EXHF   =         0.00000000
  -V(xc)+E(xc)   XCENC  =     -2050.82795793
  PAW double counting   =      5135.15659847    -2719.01140655
  entropy T*S    EENTRO =         0.00000000
  eigenvalues    EBANDS =       212.74697768
  atomic energy  EATOM  =      3827.98814510
  Solvation  Ediel_sol  =         0.00000000
  ---------------------------------------------------
  free energy    TOTEN  =      1245.14749607 eV

  energy without entropy =     1245.14749607  energy(sigma->0) =     1245.14749607


--------------------------------------------------------------------------------------------------------




--------------------------------------- Iteration      1(   2)  ---------------------------------------


    EDDIAG:  cpu time    0.4974: real time    0.5142
  RMM-DIIS:  cpu time    1.0541: real time    1.0543
    ORTHCH:  cpu time    0.0720: real time    0.0720
 BZINTS: Fermi energy:  2.128491;138.000000 electrons
         Band energy:-485.512658;  BLOECHL correction: -0.222433
       DOS:  cpu time    0.0031: real time    0.0031
    --------------------------------------------
      LOOP:  cpu time    1.6265: real time    1.6435

 eigenvalue-minimisations  :   510
 total energy-change (2. order) :-0.6982596E+03  (-0.7567979E+03)
 number of electron     138.0000000 magnetization 
 augmentation part      138.0000000 magnetization 

 DIPCOR: dipole corrections for dipol
 direction  3 min pos   355,
 dipolmoment           0.000000      0.000000     -0.000402 electrons x Angstroem
 Tr[quadrupol]     -1835.607661

 energy correction for charged system         0.000000 eV
 dipol+quadrupol energy correction           -0.000000 eV
 added-field ion interaction          0.004375 eV  (added to PSCEN)


 Free energy of the ion-electron system (eV)
  ---------------------------------------------------
  alpha Z        PSCENC =        63.16543847
  Ewald energy   TEWEN  =     12828.47793374
  -Hartree energ DENC   =    -16052.54823292
  -exchange      EXHF   =         0.00000000
  -V(xc)+E(xc)   XCENC  =     -2050.82795793
  PAW double counting   =      5135.15659847    -2719.01140655
  entropy T*S    EENTRO =         0.00000000
  eigenvalues    EBANDS =      -485.51265772
  atomic energy  EATOM  =      3827.98814510
  Solvation  Ediel_sol  =         0.00000000
  ---------------------------------------------------
  free energy    TOTEN  =       546.88786067 eV

  energy without entropy =      546.88786067  energy(sigma->0) =      546.88786067


--------------------------------------------------------------------------------------------------------




--------------------------------------- Iteration      1(   3)  ---------------------------------------


    EDDIAG:  cpu time    0.4928: real time    0.5165
  RMM-DIIS:  cpu time    1.0587: real time    1.0590
    ORTHCH:  cpu time    0.0713: real time    0.0713
 BZINTS: Fermi energy:  0.374450;138.000000 electrons
         Band energy:-720.431329;  BLOECHL correction: -0.435722
       DOS:  cpu time    0.0032: real time    0.0032
    --------------------------------------------
      LOOP:  cpu time    1.6261: real time    1.6500

 eigenvalue-minimisations  :   510
 total energy-change (2. order) :-0.2349187E+03  (-0.2996461E+03)
 number of electron     138.0000000 magnetization 
 augmentation part      138.0000000 magnetization 

 DIPCOR: dipole corrections for dipol
 direction  3 min pos   355,
 dipolmoment           0.000000      0.000000     -0.000402 electrons x Angstroem
 Tr[quadrupol]     -1835.607661

 energy correction for charged system         0.000000 eV
 dipol+quadrupol energy correction           -0.000000 eV
 added-field ion interaction          0.004375 eV  (added to PSCEN)


 Free energy of the ion-electron system (eV)
  ---------------------------------------------------
  alpha Z        PSCENC =        63.16543847
  Ewald energy   TEWEN  =     12828.47793374
  -Hartree energ DENC   =    -16052.54823292
  -exchange      EXHF   =         0.00000000
  -V(xc)+E(xc)   XCENC  =     -2050.82795793
  PAW double counting   =      5135.15659847    -2719.01140655
  entropy T*S    EENTRO =         0.00000000
  eigenvalues    EBANDS =      -720.43132856
  atomic energy  EATOM  =      3827.98814510
  Solvation  Ediel_sol  =         0.00000000
  ---------------------------------------------------
  free energy    TOTEN  =       311.96918983 eV

  energy without entropy =      311.96918983  energy(sigma->0) =      311.96918983


--------------------------------------------------------------------------------------------------------




--------------------------------------- Iteration      1(   4)  ---------------------------------------


    EDDIAG:  cpu time    0.4929: real time    0.5152
  RMM-DIIS:  cpu time    1.0609: real time    1.0611
    ORTHCH:  cpu time    0.0718: real time    0.0718
 BZINTS: Fermi energy: -0.785538;138.000000 electrons
         Band energy:-894.890029;  BLOECHL correction: -0.168313
       DOS:  cpu time    0.0028: real time    0.0028
    --------------------------------------------
      LOOP:  cpu time    1.6285: real time    1.6510

 eigenvalue-minimisations  :   510
 total energy-change (2. order) :-0.1744587E+03  (-0.1505867E+03)
 number of electron     138.0000000 magnetization 
 augmentation part      138.0000000 magnetization 

 DIPCOR: dipole corrections for dipol
 direction  3 min pos   355,
 dipolmoment           0.000000      0.000000     -0.000402 electrons x Angstroem
 Tr[quadrupol]     -1835.607661

 energy correction for charged system         0.000000 eV
 dipol+quadrupol energy correction           -0.000000 eV
 added-field ion interaction          0.004375 eV  (added to PSCEN)


 Free energy of the ion-electron system (eV)
  ---------------------------------------------------
  alpha Z        PSCENC =        63.16543847
  Ewald energy   TEWEN  =     12828.47793374
  -Hartree energ DENC   =    -16052.54823292
  -exchange      EXHF   =         0.00000000
  -V(xc)+E(xc)   XCENC  =     -2050.82795793
  PAW double counting   =      5135.15659847    -2719.01140655
  entropy T*S    EENTRO =         0.00000000
  eigenvalues    EBANDS =      -894.89002863
  atomic energy  EATOM  =      3827.98814510
  Solvation  Ediel_sol  =         0.00000000
  ---------------------------------------------------
  free energy    TOTEN  =       137.51048976 eV

  energy without entropy =      137.51048976  energy(sigma->0) =      137.51048976


--------------------------------------------------------------------------------------------------------




--------------------------------------- Iteration      1(   5)  ---------------------------------------


    EDDIAG:  cpu time    0.4916: real time    0.5141
  RMM-DIIS:  cpu time    1.0487: real time    1.0490
    ORTHCH:  cpu time    0.0713: real time    0.0713
 BZINTS: Fermi energy: -1.246267;138.000000 electrons
         Band energy:***********;  BLOECHL correction: -0.092089
       DOS:  cpu time    0.0033: real time    0.0033
    --------------------------------------------
      LOOP:  cpu time    1.6149: real time    1.6377

 eigenvalue-minimisations  :   510
 total energy-change (2. order) :-0.1171427E+03  (-0.9424857E+02)
 number of electron     138.0000000 magnetization 
 augmentation part      138.0000000 magnetization 

 DIPCOR: dipole corrections for dipol
 direction  3 min pos   355,
 dipolmoment           0.000000      0.000000     -0.000402 electrons x Angstroem
 Tr[quadrupol]     -1835.607661

 energy correction for charged system         0.000000 eV
 dipol+quadrupol energy correction           -0.000000 eV
 added-field ion interaction          0.004375 eV  (added to PSCEN)


 Free energy of the ion-electron system (eV)
  ---------------------------------------------------
  alpha Z        PSCENC =        63.16543847
  Ewald energy   TEWEN  =     12828.47793374
  -Hartree energ DENC   =    -16052.54823292
  -exchange      EXHF   =         0.00000000
  -V(xc)+E(xc)   XCENC  =     -2050.82795793
  PAW double counting   =      5135.15659847    -2719.01140655
  entropy T*S    EENTRO =         0.00000000
  eigenvalues    EBANDS =     -1012.03275130
  atomic energy  EATOM  =      3827.98814510
  Solvation  Ediel_sol  =         0.00000000
  ---------------------------------------------------
  free energy    TOTEN  =        20.36776709 eV

  energy without entropy =       20.36776709  energy(sigma->0) =       20.36776709


--------------------------------------------------------------------------------------------------------




--------------------------------------- Iteration      1(   6)  ---------------------------------------


    EDDIAG:  cpu time    0.4994: real time    0.5142
  RMM-DIIS:  cpu time    1.0493: real time    1.0515
    ORTHCH:  cpu time    0.0720: real time    0.0720
 BZINTS: Fermi energy: -1.361715;138.000000 electrons
         Band energy:***********;  BLOECHL correction: -0.058427
       DOS:  cpu time    0.0031: real time    0.0031
    --------------------------------------------
      LOOP:  cpu time    1.6238: real time    1.6408

 eigenvalue-minimisations  :   510
 total energy-change (2. order) :-0.6451142E+02  (-0.4921659E+02)
 number of electron     138.0000000 magnetization 
 augmentation part      138.0000000 magnetization 

 DIPCOR: dipole corrections for dipol
 direction  3 min pos   355,
 dipolmoment           0.000000      0.000000     -0.000402 electrons x Angstroem
 Tr[quadrupol]     -1835.607661

 energy correction for charged system         0.000000 eV
 dipol+quadrupol energy correction           -0.000000 eV
 added-field ion interaction          0.004375 eV  (added to PSCEN)


 Free energy of the ion-electron system (eV)
  ---------------------------------------------------
  alpha Z        PSCENC =        63.16543847
  Ewald energy   TEWEN  =     12828.47793374
  -Hartree energ DENC   =    -16052.54823292
  -exchange      EXHF   =         0.00000000
  -V(xc)+E(xc)   XCENC  =     -2050.82795793
  PAW double counting   =      5135.15659847    -2719.01140655
  entropy T*S    EENTRO =         0.00000000
  eigenvalues    EBANDS =     -1076.54417054
  atomic energy  EATOM  =      3827.98814510
  Solvation  Ediel_sol  =         0.00000000
  ---------------------------------------------------
  free energy    TOTEN  =       -44.14365215 eV

  energy without entropy =      -44.14365215  energy(sigma->0) =      -44.14365215


--------------------------------------------------------------------------------------------------------




--------------------------------------- Iteration      1(   7)  ---------------------------------------


    EDDIAG:  cpu time    0.4841: real time    0.5098
  RMM-DIIS:  cpu time    1.0495: real time    1.0497
    ORTHCH:  cpu time    0.0712: real time    0.0712
 BZINTS: Fermi energy: -1.425355;138.000000 electrons
         Band energy:***********;  BLOECHL correction: -0.063073
       DOS:  cpu time    0.0030: real time    0.0030
    --------------------------------------------
      LOOP:  cpu time    1.6078: real time    1.6338

 eigenvalue-minimisations  :   510
 total energy-change (2. order) :-0.2536616E+02  (-0.1956436E+02)
 number of electron     138.0000000 magnetization 
 augmentation part      138.0000000 magnetization 

 DIPCOR: dipole corrections for dipol
 direction  3 min pos   355,
 dipolmoment           0.000000      0.000000     -0.000402 electrons x Angstroem
 Tr[quadrupol]     -1835.607661

 energy correction for charged system         0.000000 eV
 dipol+quadrupol energy correction           -0.000000 eV
 added-field ion interaction          0.004375 eV  (added to PSCEN)


 Free energy of the ion-electron system (eV)
  ---------------------------------------------------
  alpha Z        PSCENC =        63.16543847
  Ewald energy   TEWEN  =     12828.47793374
  -Hartree energ DENC   =    -16052.54823292
  -exchange      EXHF   =         0.00000000
  -V(xc)+E(xc)   XCENC  =     -2050.82795793
  PAW double counting   =      5135.15659847    -2719.01140655
  entropy T*S    EENTRO =         0.00000000
  eigenvalues    EBANDS =     -1101.91032756
  atomic energy  EATOM  =      3827.98814510
  Solvation  Ediel_sol  =         0.00000000
  ---------------------------------------------------
  free energy    TOTEN  =       -69.50980917 eV

  energy without entropy =      -69.50980917  energy(sigma->0) =      -69.50980917


--------------------------------------------------------------------------------------------------------




--------------------------------------- Iteration      1(   8)  ---------------------------------------


    EDDIAG:  cpu time    0.4881: real time    0.5126
  RMM-DIIS:  cpu time    1.0531: real time    1.0533
    ORTHCH:  cpu time    0.0707: real time    0.0707
 BZINTS: Fermi energy: -1.455798;138.000000 electrons
         Band energy:***********;  BLOECHL correction: -0.090703
       DOS:  cpu time    0.0030: real time    0.0030
    --------------------------------------------
      LOOP:  cpu time    1.6149: real time    1.6396

 eigenvalue-minimisations  :   510
 total energy-change (2. order) :-0.6260990E+01  (-0.5441239E+01)
 number of electron     138.0000000 magnetization 
 augmentation part      138.0000000 magnetization 

 DIPCOR: dipole corrections for dipol
 direction  3 min pos   355,
 dipolmoment           0.000000      0.000000     -0.000402 electrons x Angstroem
 Tr[quadrupol]     -1835.607661

 energy correction for charged system         0.000000 eV
 dipol+quadrupol energy correction           -0.000000 eV
 added-field ion interaction          0.004375 eV  (added to PSCEN)


 Free energy of the ion-electron system (eV)
  ---------------------------------------------------
  alpha Z        PSCENC =        63.16543847
  Ewald energy   TEWEN  =     12828.47793374
  -Hartree energ DENC   =    -16052.54823292
  -exchange      EXHF   =         0.00000000
  -V(xc)+E(xc)   XCENC  =     -2050.82795793
  PAW double counting   =      5135.15659847    -2719.01140655
  entropy T*S    EENTRO =         0.00000000
  eigenvalues    EBANDS =     -1108.17131716
  atomic energy  EATOM  =      3827.98814510
  Solvation  Ediel_sol  =         0.00000000
  ---------------------------------------------------
  free energy    TOTEN  =       -75.77079877 eV

  energy without entropy =      -75.77079877  energy(sigma->0) =      -75.77079877


--------------------------------------------------------------------------------------------------------




--------------------------------------- Iteration      1(   9)  ---------------------------------------


    EDDIAG:  cpu time    0.4894: real time    0.5118
  RMM-DIIS:  cpu time    2.7426: real time    2.7431
    ORTHCH:  cpu time    0.0708: real time    0.0708
 BZINTS: Fermi energy: -1.487823;138.000000 electrons
         Band energy:***********;  BLOECHL correction: -0.094879
       DOS:  cpu time    0.0031: real time    0.0031
    --------------------------------------------
      LOOP:  cpu time    3.3059: real time    3.3288

 eigenvalue-minimisations  :  1492
 total energy-change (2. order) :-0.2132497E+01  (-0.2064464E+01)
 number of electron     138.0000000 magnetization 
 augmentation part      138.0000000 magnetization 

 DIPCOR: dipole corrections for dipol
 direction  3 min pos   355,
 dipolmoment           0.000000      0.000000     -0.000402 electrons x Angstroem
 Tr[quadrupol]     -1835.607661

 energy correction for charged system         0.000000 eV
 dipol+quadrupol energy correction           -0.000000 eV
 added-field ion interaction          0.004375 eV  (added to PSCEN)


 Free energy of the ion-electron system (eV)
  ---------------------------------------------------
  alpha Z        PSCENC =        63.16543847
  Ewald energy   TEWEN  =     12828.47793374
  -Hartree energ DENC   =    -16052.54823292
  -exchange      EXHF   =         0.00000000
  -V(xc)+E(xc)   XCENC  =     -2050.82795793
  PAW double counting   =      5135.15659847    -2719.01140655
  entropy T*S    EENTRO =         0.00000000
  eigenvalues    EBANDS =     -1110.30381411
  atomic energy  EATOM  =      3827.98814510
  Solvation  Ediel_sol  =         0.00000000
  ---------------------------------------------------
  free energy    TOTEN  =       -77.90329572 eV

  energy without entropy =      -77.90329572  energy(sigma->0) =      -77.90329572


--------------------------------------------------------------------------------------------------------




--------------------------------------- Iteration      1(  10)  ---------------------------------------


    EDDIAG:  cpu time    0.5002: real time    0.5185
  RMM-DIIS:  cpu time    3.2113: real time    3.2138
    ORTHCH:  cpu time    0.0716: real time    0.0716
 BZINTS: Fermi energy: -1.489401;138.000000 electrons
         Band energy:***********;  BLOECHL correction: -0.094494
       DOS:  cpu time    0.0029: real time    0.0029
    --------------------------------------------
      LOOP:  cpu time    3.7860: real time    3.8069

 eigenvalue-minimisations  :  1773
 total energy-change (2. order) :-0.2958605E+00  (-0.3051759E+00)
 number of electron     138.0000000 magnetization 
 augmentation part      138.0000000 magnetization 

 DIPCOR: dipole corrections for dipol
 direction  3 min pos   355,
 dipolmoment           0.000000      0.000000     -0.000402 electrons x Angstroem
 Tr[quadrupol]     -1835.607661

 energy correction for charged system         0.000000 eV
 dipol+quadrupol energy correction           -0.000000 eV
 added-field ion interaction          0.004375 eV  (added to PSCEN)


 Free energy of the ion-electron system (eV)
  ---------------------------------------------------
  alpha Z        PSCENC =        63.16543847
  Ewald energy   TEWEN  =     12828.47793374
  -Hartree energ DENC   =    -16052.54823292
  -exchange      EXHF   =         0.00000000
  -V(xc)+E(xc)   XCENC  =     -2050.82795793
  PAW double counting   =      5135.15659847    -2719.01140655
  entropy T*S    EENTRO =         0.00000000
  eigenvalues    EBANDS =     -1110.59967463
  atomic energy  EATOM  =      3827.98814510
  Solvation  Ediel_sol  =         0.00000000
  ---------------------------------------------------
  free energy    TOTEN  =       -78.19915624 eV

  energy without entropy =      -78.19915624  energy(sigma->0) =      -78.19915624


--------------------------------------------------------------------------------------------------------




--------------------------------------- Iteration      1(  11)  ---------------------------------------


    EDDIAG:  cpu time    0.4857: real time    0.5128
  RMM-DIIS:  cpu time    3.2040: real time    3.2045
    ORTHCH:  cpu time    0.0734: real time    0.0734
 BZINTS: Fermi energy: -1.489722;138.000000 electrons
         Band energy:***********;  BLOECHL correction: -0.094458
       DOS:  cpu time    0.0030: real time    0.0030
    --------------------------------------------
      LOOP:  cpu time    3.7662: real time    3.7938

 eigenvalue-minimisations  :  1738
 total energy-change (2. order) :-0.1463458E-02  (-0.1670102E-01)
 number of electron     138.0000000 magnetization 
 augmentation part      138.0000000 magnetization 

 DIPCOR: dipole corrections for dipol
 direction  3 min pos   355,
 dipolmoment           0.000000      0.000000     -0.000402 electrons x Angstroem
 Tr[quadrupol]     -1835.607661

 energy correction for charged system         0.000000 eV
 dipol+quadrupol energy correction           -0.000000 eV
 added-field ion interaction          0.004375 eV  (added to PSCEN)


 Free energy of the ion-electron system (eV)
  ---------------------------------------------------
  alpha Z        PSCENC =        63.16543847
  Ewald energy   TEWEN  =     12828.47793374
  -Hartree energ DENC   =    -16052.54823292
  -exchange      EXHF   =         0.00000000
  -V(xc)+E(xc)   XCENC  =     -2050.82795793
  PAW double counting   =      5135.15659847    -2719.01140655
  entropy T*S    EENTRO =         0.00000000
  eigenvalues    EBANDS =     -1110.60113809
  atomic energy  EATOM  =      3827.98814510
  Solvation  Ediel_sol  =         0.00000000
  ---------------------------------------------------
  free energy    TOTEN  =       -78.20061970 eV

  energy without entropy =      -78.20061970  energy(sigma->0) =      -78.20061970


--------------------------------------------------------------------------------------------------------




--------------------------------------- Iteration      1(  12)  ---------------------------------------


    EDDIAG:  cpu time    0.4994: real time    0.5257
  RMM-DIIS:  cpu time    3.3066: real time    3.3073
    ORTHCH:  cpu time    0.0716: real time    0.0716
 BZINTS: Fermi energy: -1.489760;138.000000 electrons
         Band energy:***********;  BLOECHL correction: -0.094477
       DOS:  cpu time    0.0031: real time    0.0031
    CHARGE:  cpu time    0.1295: real time    0.1296
    MIXING:  cpu time    0.0041: real time    0.0041
    --------------------------------------------
      LOOP:  cpu time    4.0143: real time    4.0414

 eigenvalue-minimisations  :  1817
 total energy-change (2. order) :-0.2673078E-02  (-0.3336234E-02)
 number of electron     137.9999999 magnetization 
 augmentation part        5.2109576 magnetization 

 DIPCOR: dipole corrections for dipol
 direction  3 min pos   355,
 dipolmoment           0.000000      0.000000     -0.000402 electrons x Angstroem
 Tr[quadrupol]     -1835.607661

 energy correction for charged system         0.000000 eV
 dipol+quadrupol energy correction           -0.000000 eV
 added-field ion interaction          0.004375 eV  (added to PSCEN)


 Broyden mixing:
  rms(total) = 0.19461E+01    rms(broyden)= 0.19449E+01
  rms(prec ) = 0.20395E+01
  weight for this iteration     100.00

 Free energy of the ion-electron system (eV)
  ---------------------------------------------------
  alpha Z        PSCENC =        63.16543847
  Ewald energy   TEWEN  =     12828.47793374
  -Hartree energ DENC   =    -16052.54823292
  -exchange      EXHF   =         0.00000000
  -V(xc)+E(xc)   XCENC  =     -2050.82795793
  PAW double counting   =      5135.15659847    -2719.01140655
  entropy T*S    EENTRO =         0.00000000
  eigenvalues    EBANDS =     -1110.60381117
  atomic energy  EATOM  =      3827.98814510
  Solvation  Ediel_sol  =         0.00000000
  ---------------------------------------------------
  free energy    TOTEN  =       -78.20329278 eV

  energy without entropy =      -78.20329278  energy(sigma->0) =      -78.20329278


--------------------------------------------------------------------------------------------------------




--------------------------------------- Iteration      1(  13)  ---------------------------------------


    POTLOK:  cpu time    4.9265: real time    4.9536
    SETDIJ:  cpu time    0.1370: real time    0.1370
    EDDIAG:  cpu time    0.4813: real time    0.4818
  RMM-DIIS:  cpu time    2.6005: real time    2.6010
    ORTHCH:  cpu time    0.0707: real time    0.0707
 BZINTS: Fermi energy: -1.035623;138.000000 electrons
         Band energy:-936.528623;  BLOECHL correction: -0.103633
       DOS:  cpu time    0.0030: real time    0.0030
    CHARGE:  cpu time    0.1281: real time    0.1281
    MIXING:  cpu time    0.0038: real time    0.0038
    --------------------------------------------
      LOOP:  cpu time    8.3511: real time    8.3791

 eigenvalue-minimisations  :  1427
 total energy-change (2. order) : 0.9754352E+01  (-0.5634630E+01)
 number of electron     137.9999999 magnetization 
 augmentation part        4.4795268 magnetization 

 DIPCOR: dipole corrections for dipol
 direction  3 min pos   361,
 dipolmoment           0.000000      0.000000      0.268268 electrons x Angstroem
 Tr[quadrupol]     -1847.203396

 energy correction for charged system         0.000000 eV
 dipol+quadrupol energy correction           -0.002524 eV
 added-field ion interaction         -1.903948 eV  (added to PSCEN)


 Broyden mixing:
  rms(total) = 0.75339E+00    rms(broyden)= 0.75290E+00
  rms(prec ) = 0.85132E+00
  weight for this iteration     100.00

 eigenvalues of (default mixing * dielectric matrix)
  average eigenvalue GAMMA=   0.9671
  0.9671

 Free energy of the ion-electron system (eV)
  ---------------------------------------------------
  alpha Z        PSCENC =        61.25459118
  Ewald energy   TEWEN  =     12828.47793374
  -Hartree energ DENC   =    -16221.90317703
  -exchange      EXHF   =         0.00000000
  -V(xc)+E(xc)   XCENC  =     -2041.37057588
  PAW double counting   =      5561.02421337    -3147.39144789
  entropy T*S    EENTRO =         0.00000000
  eigenvalues    EBANDS =      -936.52862347
  atomic energy  EATOM  =      3827.98814510
  Solvation  Ediel_sol  =         0.00000000
  ---------------------------------------------------
  free energy    TOTEN  =       -68.44894088 eV

  energy without entropy =      -68.44894088  energy(sigma->0) =      -68.44894088


--------------------------------------------------------------------------------------------------------




--------------------------------------- Iteration      1(  14)  ---------------------------------------


    POTLOK:  cpu time    4.9286: real time    4.9557
    SETDIJ:  cpu time    0.1363: real time    0.1363
    EDDIAG:  cpu time    0.4782: real time    0.4787
  RMM-DIIS:  cpu time    2.8614: real time    2.8620
    ORTHCH:  cpu time    0.0699: real time    0.0699
 BZINTS: Fermi energy: -0.847037;138.000000 electrons
         Band energy:-973.549434;  BLOECHL correction: -0.097148
       DOS:  cpu time    0.0030: real time    0.0030
    CHARGE:  cpu time    0.1278: real time    0.1278
    MIXING:  cpu time    0.0035: real time    0.0035
    --------------------------------------------
      LOOP:  cpu time    8.6087: real time    8.6369

 eigenvalue-minimisations  :  1563
 total energy-change (2. order) :-0.9967684E+01  (-0.4248211E+00)
 number of electron     137.9999999 magnetization 
 augmentation part        4.4222265 magnetization 

 DIPCOR: dipole corrections for dipol
 direction  3 min pos   376,
 dipolmoment           0.000000      0.000000     -1.381035 electrons x Angstroem
 Tr[quadrupol]     -1837.542069

 energy correction for charged system         0.000000 eV
 dipol+quadrupol energy correction           -0.066885 eV
 added-field ion interaction         -3.281582 eV  (added to PSCEN)


 Broyden mixing:
  rms(total) = 0.76247E+00    rms(broyden)= 0.76244E+00
  rms(prec ) = 0.20139E+01
  weight for this iteration     100.00

 eigenvalues of (default mixing * dielectric matrix)
  average eigenvalue GAMMA=   0.9355
  0.9355  0.9355

 Free energy of the ion-electron system (eV)
  ---------------------------------------------------
  alpha Z        PSCENC =        59.81259596
  Ewald energy   TEWEN  =     12828.47793374
  -Hartree energ DENC   =    -16195.43956094
  -exchange      EXHF   =         0.00000000
  -V(xc)+E(xc)   XCENC  =     -2039.27597892
  PAW double counting   =      5738.64899491    -3325.07932070
  entropy T*S    EENTRO =         0.00000000
  eigenvalues    EBANDS =      -973.54943414
  atomic energy  EATOM  =      3827.98814510
  Solvation  Ediel_sol  =         0.00000000
  ---------------------------------------------------
  free energy    TOTEN  =       -78.41662500 eV

  energy without entropy =      -78.41662500  energy(sigma->0) =      -78.41662500


--------------------------------------------------------------------------------------------------------




--------------------------------------- Iteration      1(  15)  ---------------------------------------


    POTLOK:  cpu time    4.9212: real time    4.9489
    SETDIJ:  cpu time    0.1364: real time    0.1364
    EDDIAG:  cpu time    0.4766: real time    0.4771
  RMM-DIIS:  cpu time    2.6810: real time    2.6815
    ORTHCH:  cpu time    0.0704: real time    0.0704
 BZINTS: Fermi energy: -1.102709;138.000000 electrons
         Band energy:-924.389649;  BLOECHL correction: -0.117675
       DOS:  cpu time    0.0030: real time    0.0030
    CHARGE:  cpu time    0.1273: real time    0.1273
    MIXING:  cpu time    0.0036: real time    0.0036
    --------------------------------------------
      LOOP:  cpu time    8.4195: real time    8.4481

 eigenvalue-minimisations  :  1465
 total energy-change (2. order) : 0.1014243E+02  (-0.1695522E+00)
 number of electron     137.9999999 magnetization 
 augmentation part        4.3608741 magnetization 

 DIPCOR: dipole corrections for dipol
 direction  3 min pos   385,
 dipolmoment           0.000000      0.000000      0.100941 electrons x Angstroem
 Tr[quadrupol]     -1846.699067

 energy correction for charged system         0.000000 eV
 dipol+quadrupol energy correction           -0.000357 eV
 added-field ion interaction          0.813602 eV  (added to PSCEN)


 Broyden mixing:
  rms(total) = 0.50148E+00    rms(broyden)= 0.50145E+00
  rms(prec ) = 0.64075E+00
  weight for this iteration     100.00

 eigenvalues of (default mixing * dielectric matrix)
  average eigenvalue GAMMA=   1.1353
  2.0654  1.1944  0.1462

 Free energy of the ion-electron system (eV)
  ---------------------------------------------------
  alpha Z        PSCENC =        63.97430832
  Ewald energy   TEWEN  =     12828.47793374
  -Hartree energ DENC   =    -16238.95520349
  -exchange      EXHF   =         0.00000000
  -V(xc)+E(xc)   XCENC  =     -2038.94945293
  PAW double counting   =      5767.25498337    -3353.67525730
  entropy T*S    EENTRO =         0.00000000
  eigenvalues    EBANDS =      -924.38964897
  atomic energy  EATOM  =      3827.98814510
  Solvation  Ediel_sol  =         0.00000000
  ---------------------------------------------------
  free energy    TOTEN  =       -68.27419215 eV

  energy without entropy =      -68.27419215  energy(sigma->0) =      -68.27419215


--------------------------------------------------------------------------------------------------------




--------------------------------------- Iteration      1(  16)  ---------------------------------------


    POTLOK:  cpu time    4.9141: real time    4.9359
    SETDIJ:  cpu time    0.1372: real time    0.1372
    EDDIAG:  cpu time    0.4739: real time    0.4744
  RMM-DIIS:  cpu time    2.7869: real time    2.7892
    ORTHCH:  cpu time    0.0699: real time    0.0699
 BZINTS: Fermi energy: -0.823653;138.000000 electrons
         Band energy:-910.604970;  BLOECHL correction: -0.060299
       DOS:  cpu time    0.0031: real time    0.0031
    CHARGE:  cpu time    0.1274: real time    0.1275
    MIXING:  cpu time    0.0045: real time    0.0044
    --------------------------------------------
      LOOP:  cpu time    8.5170: real time    8.5415

 eigenvalue-minimisations  :  1530
 total energy-change (2. order) : 0.3750703E+00  (-0.1245742E+00)
 number of electron     137.9999999 magnetization 
 augmentation part        4.4321172 magnetization 

 DIPCOR: dipole corrections for dipol
 direction  3 min pos   370,
 dipolmoment           0.000000      0.000000     -0.042285 electrons x Angstroem
 Tr[quadrupol]     -1850.986950

 energy correction for charged system         0.000000 eV
 dipol+quadrupol energy correction           -0.000063 eV
 added-field ion interaction          0.059756 eV  (added to PSCEN)


 Broyden mixing:
  rms(total) = 0.22946E+00    rms(broyden)= 0.22944E+00
  rms(prec ) = 0.33803E+00
  weight for this iteration     100.00

 eigenvalues of (default mixing * dielectric matrix)
  average eigenvalue GAMMA=   1.0591
  2.4464  1.0366  0.6023  0.1510

 Free energy of the ion-electron system (eV)
  ---------------------------------------------------
  alpha Z        PSCENC =        63.22075642
  Ewald energy   TEWEN  =     12828.47793374
  -Hartree energ DENC   =    -16252.98670246
  -exchange      EXHF   =         0.00000000
  -V(xc)+E(xc)   XCENC  =     -2037.75705959
  PAW double counting   =      5889.58895997    -3475.82618535
  entropy T*S    EENTRO =         0.00000000
  eigenvalues    EBANDS =      -910.60496967
  atomic energy  EATOM  =      3827.98814510
  Solvation  Ediel_sol  =         0.00000000
  ---------------------------------------------------
  free energy    TOTEN  =       -67.89912182 eV

  energy without entropy =      -67.89912182  energy(sigma->0) =      -67.89912182


--------------------------------------------------------------------------------------------------------




--------------------------------------- Iteration      1(  17)  ---------------------------------------


    POTLOK:  cpu time    4.9260: real time    4.9514
    SETDIJ:  cpu time    0.1362: real time    0.1362
    EDDIAG:  cpu time    0.4785: real time    0.4791
  RMM-DIIS:  cpu time    2.3526: real time    2.3549
    ORTHCH:  cpu time    0.0705: real time    0.0705
 BZINTS: Fermi energy: -0.775259;138.000000 electrons
         Band energy:-904.689211;  BLOECHL correction: -0.099710
       DOS:  cpu time    0.0031: real time    0.0031
    CHARGE:  cpu time    0.1276: real time    0.1276
    MIXING:  cpu time    0.0060: real time    0.0060
    --------------------------------------------
      LOOP:  cpu time    8.1005: real time    8.1287

 eigenvalue-minimisations  :  1309
 total energy-change (2. order) : 0.1732627E+00  (-0.3640548E-01)
 number of electron     137.9999999 magnetization 
 augmentation part        4.4486553 magnetization 

 DIPCOR: dipole corrections for dipol
 direction  3 min pos   379,
 dipolmoment           0.000000      0.000000     -0.357077 electrons x Angstroem
 Tr[quadrupol]     -1849.693129

 energy correction for charged system         0.000000 eV
[...]
  0.014  -0.001   0.000   0.054   0.000  -0.000  -0.003  -0.000  -0.000  -0.000   0.011  -0.000  -0.000
  0.001   0.000  -0.001   0.000   0.076   0.000  -0.000  -0.004  -0.003  -0.000  -0.000   0.005   0.000
  0.000   0.000  -0.004  -0.000   0.000   0.000   0.000  -0.000  -0.000  -0.000  -0.000   0.000   0.000
 -0.003   0.000  -0.000  -0.003  -0.000   0.000   0.000   0.000  -0.000   0.000  -0.001   0.000   0.000
 -0.000  -0.000   0.000  -0.000  -0.004  -0.000   0.000   0.000   0.000   0.000   0.000  -0.000  -0.000
  0.002   0.000   0.000  -0.000  -0.003  -0.000  -0.000   0.000   0.004  -0.000   0.000  -0.000  -0.000
 -0.000  -0.000   0.004  -0.000  -0.000  -0.000   0.000   0.000  -0.000   0.002   0.000   0.000  -0.000
 -0.021   0.000   0.000   0.011  -0.000  -0.000  -0.001   0.000   0.000   0.000   0.004  -0.000  -0.000
  0.000   0.000  -0.000  -0.000   0.005   0.000   0.000  -0.000  -0.000   0.000  -0.000   0.002   0.000
 -0.001  -0.000  -0.003  -0.000   0.000   0.000   0.000  -0.000  -0.000  -0.000  -0.000   0.000   0.004


------------------------ aborting loop because EDIFF is reached ----------------------------------------


    CHARGE:  cpu time    0.1277: real time    0.1277
    FORLOC:  cpu time    0.0385: real time    0.0385
    FORNL :  cpu time    0.6856: real time    0.6856
    STRESS:  cpu time    2.0740: real time    2.0742
    FORCOR:  cpu time    4.9346: real time    4.9376
    FORHAR:  cpu time    0.0732: real time    0.0732
    MIXING:  cpu time    0.0067: real time    0.0067
    OFIELD:  cpu time    0.0001: real time    0.0000

  FORCE on cell =-STRESS in cart. coord.  units (eV):
  Direction    XX          YY          ZZ          XY          YZ          ZX
  --------------------------------------------------------------------------------------
  Alpha Z    63.16106    63.16106    63.16106
  Ewald   14369.34416 14283.56890-15824.44499  -257.31915   107.80736   132.81812
  Hartree 15270.66805 15196.00395-14184.65533  -185.93824    34.74982    31.44529
  E(xc)    -445.36149  -445.21468  -444.09166    -0.27389     0.36986     0.69575
  Local  -30604.06112-30436.41347 29043.27830   437.57649  -118.97034  -123.93910
  n-local   120.91185   120.28187   112.26419     0.43939     0.88800     0.40470
  augment    44.61233    44.09370    45.74631     0.22818    -1.61317    -2.70309
  Kinetic  1173.24748  1165.36476  1191.04471     3.51981   -23.04776   -38.34604
  Fock        0.00000     0.00000     0.00000     0.00000     0.00000     0.00000
  -------------------------------------------------------------------------------------
  Total      -7.47767    -9.15390     2.30260    -1.76741     0.18377     0.37564
  in kB      -4.64371    -5.68466     1.42994    -1.09758     0.11412     0.23327
  external pressure =       -2.97 kB  Pullay stress =        0.00 kB


 VOLUME and BASIS-vectors are now :
 -----------------------------------------------------------------------------
  energy-cutoff  :      520.00
  volume of cell :     2579.96
      direct lattice vectors                 reciprocal lattice vectors
     9.555752754  0.000000000  0.000000000     0.104649003  0.060419130  0.000000000
    -4.777876377  8.275524637  0.000000000     0.000000000  0.120838260  0.000000000
     0.000000000  0.000000000 32.625095367     0.000000000  0.000000000  0.030651251

  length of vectors
     9.555752754  9.555752754 32.625095367     0.120838260  0.120838260  0.030651251


 FORCES acting on ions
    electron-ion (+dipol)            ewald-force                    non-local-force                 convergence-correction
 -----------------------------------------------------------------------------------------------
   0.507E-01 -.381E-01 0.122E+03   -.239E-02 -.721E-03 -.121E+03   -.281E-01 0.147E-01 -.805E+00   0.208E-05 0.189E-05 -.705E-04
   0.570E-01 -.149E+00 0.562E+02   -.629E-01 0.804E-01 -.562E+02   -.109E-02 0.458E-01 -.802E-03   0.703E-05 0.291E-05 -.556E-03
   -.200E+01 -.278E+01 0.387E+01   0.206E+01 0.272E+01 -.469E+01   -.522E-01 0.324E-01 0.812E+00   0.486E-05 0.352E-05 -.343E-03
   -.921E-02 -.352E-01 0.122E+03   0.242E-02 0.411E-03 -.121E+03   -.143E-01 0.202E-01 -.882E+00   0.331E-06 -.594E-05 -.668E-04
   -.973E-01 -.363E-01 0.560E+02   0.116E+00 0.345E-01 -.560E+02   -.260E-01 0.112E-02 0.506E-01   0.377E-05 0.723E-05 -.555E-03
   -.388E+01 -.357E+01 -.760E+01   0.387E+01 0.350E+01 0.712E+01   -.205E-01 0.512E-01 0.482E+00   -.363E-05 -.370E-05 -.344E-03
   0.404E-01 0.538E-01 0.122E+03   -.293E-02 -.132E-02 -.121E+03   -.340E-01 -.115E-01 -.888E+00   0.355E-05 0.764E-05 -.666E-04
   -.215E-01 0.805E-01 0.563E+02   0.173E-01 -.665E-01 -.563E+02   -.126E-01 -.562E-02 0.579E-01   0.177E-04 0.713E-05 -.555E-03
   -.137E+01 0.156E+01 -.124E+02   0.137E+01 -.150E+01 0.118E+02   -.880E-02 -.293E-01 0.573E+00   0.304E-05 0.360E-05 -.333E-03
   -.177E-01 -.549E-01 0.122E+03   -.255E-03 0.113E-02 -.121E+03   -.100E-01 0.391E-01 -.926E+00   0.438E-05 0.608E-05 -.637E-04
   0.245E-01 -.542E-01 0.562E+02   0.842E-02 0.262E-01 -.563E+02   -.320E-01 0.239E-01 0.703E-01   0.176E-04 -.250E-05 -.557E-03
   -.134E+01 -.102E+01 -.460E+01   0.123E+01 0.942E+00 0.425E+01   0.775E-01 0.688E-01 0.357E+00   0.540E-05 0.735E-05 -.345E-03
   0.256E-01 0.452E-01 0.122E+03   0.257E-03 0.567E-02 -.121E+03   -.246E-01 -.301E-01 -.907E+00   0.642E-05 0.188E-06 -.641E-04
   0.130E+00 -.331E-01 0.561E+02   -.103E+00 0.687E-01 -.561E+02   -.162E-01 -.277E-01 0.353E-01   0.420E-05 0.169E-06 -.560E-03
   0.323E+01 -.480E+00 -.172E+02   -.326E+01 0.562E+00 0.167E+02   0.391E-01 -.498E-01 0.508E+00   -.150E-05 -.349E-05 -.322E-03
   0.525E-01 -.196E-01 0.122E+03   0.599E-02 -.332E-02 -.121E+03   -.466E-01 0.133E-01 -.798E+00   0.118E-04 0.665E-05 -.632E-04
   -.446E-01 0.105E+00 0.561E+02   0.721E-01 -.968E-01 -.561E+02   -.277E-01 0.133E-02 -.281E-02   -.336E-05 0.131E-04 -.559E-03
   -.485E+01 0.497E+01 -.307E+01   0.503E+01 -.510E+01 0.231E+01   -.151E+00 0.109E+00 0.755E+00   0.210E-04 -.690E-07 -.359E-03
   0.353E-01 0.241E-01 0.122E+03   0.267E-02 -.342E-02 -.121E+03   -.393E-01 0.662E-03 -.888E+00   -.622E-05 -.415E-05 -.657E-04
   -.387E-01 0.438E-01 0.562E+02   0.596E-01 -.774E-01 -.562E+02   -.259E-01 0.268E-01 0.371E-01   -.249E-04 -.628E-05 -.556E-03
   0.208E+01 0.301E+01 -.125E+02   -.199E+01 -.294E+01 0.121E+02   -.875E-01 -.338E-01 0.438E+00   -.828E-05 0.127E-05 -.331E-03
   0.504E-01 -.234E-01 0.122E+03   -.264E-02 0.364E-02 -.121E+03   -.393E-01 -.321E-02 -.814E+00   -.601E-05 -.147E-04 -.631E-04
   0.244E-01 -.105E-01 0.563E+02   -.105E-01 0.355E-01 -.563E+02   -.284E-01 -.169E-01 0.338E-02   -.708E-05 -.206E-04 -.556E-03
   -.502E-01 0.212E+01 0.830E+01   0.129E+00 -.225E+01 -.896E+01   -.723E-01 0.129E+00 0.670E+00   0.622E-05 -.195E-04 -.353E-03
   -.276E-01 0.240E-01 0.122E+03   -.304E-02 -.190E-02 -.121E+03   0.363E-02 -.195E-01 -.880E+00   -.153E-04 0.150E-05 -.668E-04
   0.113E+00 0.194E-01 0.560E+02   -.967E-01 0.468E-02 -.560E+02   -.110E-01 -.157E-01 0.179E-01   -.145E-04 -.174E-05 -.558E-03
   0.263E+01 -.991E+00 -.326E+01   -.272E+01 0.113E+01 0.230E+01   0.292E-01 -.127E+00 0.885E+00   -.151E-04 0.900E-05 -.339E-03
   -.138E-01 -.131E-01 0.895E+02   0.583E-02 -.150E-01 -.894E+02   0.156E-01 -.102E-01 -.586E-01   0.110E-04 0.592E-05 -.485E-03
   -.190E+00 -.151E+00 0.223E+02   0.186E+00 0.200E+00 -.224E+02   0.102E-01 -.736E-01 0.126E+00   0.630E-05 0.385E-05 -.462E-03
   -.652E-01 0.683E-02 0.895E+02   0.607E-01 0.826E-03 -.895E+02   0.283E-01 -.338E-02 -.604E-01   0.946E-05 0.862E-05 -.477E-03
   -.961E+00 -.234E-01 0.222E+02   0.888E+00 0.305E-01 -.224E+02   0.814E-01 0.964E-02 0.171E+00   0.345E-05 0.649E-05 -.469E-03
   -.234E-01 -.191E-02 0.895E+02   -.526E-01 0.132E-01 -.894E+02   0.184E-01 -.127E-01 -.117E+00   0.156E-04 0.606E-05 -.482E-03
   0.297E+00 -.261E+00 0.237E+02   -.270E+00 0.212E+00 -.238E+02   -.561E-01 0.463E-01 0.987E-01   0.125E-04 0.206E-05 -.468E-03
   -.478E-02 0.114E-01 0.895E+02   0.155E-01 0.580E-01 -.895E+02   0.145E-01 -.293E-01 -.521E-01   0.295E-05 -.518E-05 -.481E-03
   0.308E+00 -.122E+00 0.231E+02   -.343E+00 0.172E+00 -.232E+02   0.673E-01 -.139E-01 0.146E+00   0.697E-05 -.958E-05 -.468E-03
   -.461E-01 -.360E-01 0.895E+02   -.829E-04 0.335E-01 -.894E+02   0.252E-01 -.117E-03 -.106E+00   -.503E-05 -.316E-05 -.485E-03
   0.105E+01 -.748E-01 0.221E+02   -.968E+00 0.330E-01 -.222E+02   -.833E-01 0.390E-01 0.108E+00   -.103E-04 -.229E-05 -.467E-03
   -.199E-01 0.548E-01 0.895E+02   0.277E-01 -.704E-01 -.895E+02   0.684E-02 -.245E-01 -.592E-01   -.597E-05 0.309E-05 -.474E-03
   -.220E+00 0.819E+00 0.226E+02   0.244E+00 -.802E+00 -.227E+02   -.175E-01 -.388E-01 0.171E+00   -.273E-05 0.829E-05 -.475E-03
   0.312E-01 -.388E-02 0.895E+02   -.283E-01 0.224E-01 -.894E+02   -.259E-01 -.130E-02 -.110E+00   -.147E-04 -.499E-05 -.485E-03
   -.106E+00 -.152E-01 0.236E+02   0.140E+00 0.111E-01 -.237E+02   -.615E-01 0.257E-01 0.120E+00   -.141E-04 -.681E-05 -.458E-03
   0.975E-01 -.103E-02 0.895E+02   -.644E-01 -.290E-01 -.894E+02   -.239E-01 -.940E-03 -.418E-01   -.411E-05 -.956E-05 -.485E-03
   -.847E-01 0.880E-01 0.231E+02   0.902E-01 -.845E-01 -.233E+02   0.154E-02 -.328E-01 0.168E+00   0.696E-05 -.885E-05 -.462E-03
   0.333E-01 0.552E-01 0.895E+02   0.201E-01 -.442E-01 -.894E+02   0.126E-02 -.176E-02 -.573E-01   -.989E-05 -.161E-06 -.489E-03
   -.746E-01 -.255E+00 0.228E+02   0.218E-01 0.210E+00 -.229E+02   0.796E-01 0.512E-01 0.114E+00   -.959E-05 0.690E-05 -.458E-03
   0.158E+02 0.314E+02 -.254E+03   -.272E+02 -.575E+02 0.229E+03   0.115E+02 0.261E+02 0.252E+02   -.775E-05 -.985E-05 -.158E-03
   0.496E+01 0.821E+01 -.402E+03   -.186E+02 -.361E+02 0.430E+03   0.136E+02 0.278E+02 -.283E+02   -.245E-04 0.123E-03 -.142E-04
   0.331E+01 0.865E+01 -.405E+03   -.167E+02 -.320E+02 0.439E+03   0.134E+02 0.233E+02 -.331E+02   -.770E-05 0.104E-03 -.111E-03
   0.360E+02 0.461E+02 -.239E+03   -.548E+02 -.708E+02 0.218E+03   0.187E+02 0.247E+02 0.205E+02   0.552E-04 0.895E-04 -.297E-03
   0.745E+01 0.200E+02 -.359E+03   0.109E+02 -.487E+02 0.381E+03   -.184E+02 0.286E+02 -.218E+02   0.832E-04 0.900E-04 -.855E-04
   -.864E+01 0.632E+02 -.255E+03   -.240E+01 -.848E+02 0.225E+03   0.110E+02 0.216E+02 0.302E+02   -.323E-05 0.109E-03 -.478E-03
   0.357E+02 -.468E+02 -.861E+02   -.404E+02 0.524E+02 0.890E+02   0.469E+01 -.559E+01 -.293E+01   -.677E-05 0.151E-04 0.664E-04
   -.568E+02 -.316E+01 -.958E+02   0.639E+02 0.315E+01 0.995E+02   -.708E+01 -.100E-02 -.371E+01   0.432E-04 0.162E-05 0.985E-04
   -.408E+02 -.693E+02 -.724E+02   0.450E+02 0.762E+02 0.733E+02   -.421E+01 -.690E+01 -.925E+00   0.136E-03 0.234E-03 0.696E-04
   0.113E+02 0.230E+01 0.391E+02   -.126E+02 -.280E+01 -.461E+02   0.132E+01 0.488E+00 0.703E+01   -.388E-04 0.359E-05 -.347E-03
   -.428E+02 -.737E+02 -.558E+02   0.467E+02 0.808E+02 0.555E+02   -.391E+01 -.706E+01 0.277E+00   0.165E-03 0.316E-03 -.125E-04
   0.980E+01 0.191E+02 0.362E+02   -.109E+02 -.210E+02 -.431E+02   0.106E+01 0.189E+01 0.682E+01   -.465E-04 -.765E-04 -.439E-03
   0.217E+02 -.533E+02 -.730E+02   -.247E+02 0.601E+02 0.751E+02   0.305E+01 -.680E+01 -.214E+01   0.571E-05 0.486E-04 0.314E-04
   -.544E+02 0.961E+01 -.915E+02   0.613E+02 -.110E+02 0.952E+02   -.689E+01 0.142E+01 -.372E+01   0.178E-04 0.198E-04 0.611E-04
   -.149E+02 -.699E+02 -.484E+02   0.171E+02 0.777E+02 0.479E+02   -.214E+01 -.782E+01 0.451E+00   0.490E-04 0.190E-03 -.129E-04
   0.684E+02 0.128E+02 -.269E-01   -.747E+02 -.140E+02 -.418E+01   0.637E+01 0.119E+01 0.414E+01   -.156E-03 -.189E-04 -.198E-03
   0.283E+02 -.437E+02 -.754E+02   -.324E+02 0.498E+02 0.776E+02   0.410E+01 -.609E+01 -.216E+01   -.415E-04 0.809E-04 0.283E-04
   -.586E+02 0.172E+02 -.117E+03   0.646E+02 -.186E+02 0.122E+03   -.594E+01 0.141E+01 -.552E+01   0.137E-03 -.165E-04 0.169E-03
 -----------------------------------------------------------------------------------------------
   -.397E+02 -.119E+03 0.111E+02   -.284E-13 -.103E-12 0.696E-12   0.397E+02 0.119E+03 -.111E+02   0.372E-03 0.130E-02 -.188E-01
 
 
 POSITION                                       TOTAL-FORCE (eV/Angst)
 -----------------------------------------------------------------------------------
      0.00000      0.00000      0.00000         0.020391     -0.024006      0.007052
      4.76565      8.27011      5.14867        -0.006895     -0.022836     -0.009740
      4.74306      8.25844     10.70689         0.012675     -0.026789     -0.002910
     -1.59263      2.75851      0.00000        -0.020971     -0.014413     -0.017554
      7.96075      2.75225      5.13269        -0.007667     -0.000485     -0.006072
      7.93957      2.74840     10.10476        -0.025225     -0.010877      0.008292
     -3.18525      5.51702      0.00000         0.003606      0.041131     -0.027789
      6.36508      5.49880      5.12631        -0.016615      0.008593     -0.001564
      6.34167      5.53203     10.19192        -0.004120      0.036632      0.016957
      3.18525      0.00000      0.00000        -0.027869     -0.014518     -0.027626
     -1.59066      8.27050      5.12337         0.001095     -0.003954      0.000891
     -1.64764      8.25870     10.04869        -0.033578     -0.005172      0.011998
      1.59263      2.75851      0.00000         0.001410      0.021013     -0.017164
      1.58710      2.75242      5.13250         0.011368      0.008051     -0.009872
      1.52955      2.76473     10.25200         0.005575      0.033042      0.014027
     -0.00000      5.51702      0.00000         0.012039     -0.009464     -0.003972
     -0.00593      5.50891      5.15260        -0.000063      0.009692     -0.000191
     -0.07434      5.50454     10.78256         0.031167     -0.014230      0.002297
      6.37050      0.00000      0.00000        -0.001215      0.021515     -0.023868
      1.59133      8.26328      5.12911        -0.004918     -0.006698     -0.000630
      1.57251      8.23589     10.21142         0.004244      0.032185      0.004579
      4.77788      2.75851      0.00000         0.008603     -0.022826     -0.004604
      4.77127      2.75279      5.15577        -0.014310      0.008183      0.004663
      4.75903      2.67342     10.57111         0.006516     -0.004100      0.003650
      3.18525      5.51702      0.00000        -0.026893      0.002801     -0.032424
      3.18534      5.50986      5.14832         0.005269      0.008616     -0.007808
      3.14959      5.49231     10.16797        -0.055908      0.007582     -0.068980
      0.00000      1.83901      2.60418         0.007768     -0.038159      0.003432
      0.00924      1.79749      7.68947         0.006777     -0.024717      0.005253
     -1.59263      4.59751      2.60418         0.023875      0.004450      0.007543
     -1.58078      4.61472      7.68702         0.008620      0.016886      0.002388
     -3.18525      7.35602      2.60418        -0.057429     -0.001227     -0.044275
     -3.21576      7.33492      7.61770        -0.028583     -0.003042      0.013216
      3.18525      1.83901      2.60418         0.025412      0.040283      0.008870
      3.18178      1.86320      7.67870         0.032298      0.036819      0.003819
      1.59263      4.59751      2.60418        -0.020835     -0.002426     -0.018362
      1.55898      4.59279      7.68226        -0.004440     -0.002666     -0.019114
      0.00000      7.35602      2.60418         0.014752     -0.039911      0.011111
      0.00704      7.31646      7.67164         0.006978     -0.022279     -0.000398
      6.37050      1.83901      2.60418        -0.022787      0.017337     -0.033929
      6.33717      1.81926      7.65788        -0.026736      0.021712      0.010683
      4.77788      4.59751      2.60418         0.009322     -0.030821      0.026327
      4.77521      4.55104      7.70965         0.007192     -0.029122     -0.031304
      3.18525      7.35602      2.60418         0.054837      0.009468      0.012544
      3.20277      7.35691      7.70840         0.026947      0.006063     -0.021191
      4.56284      8.16170     12.91643        -0.006006      0.001200      0.006619
     -2.10124      7.97822     13.43032        -0.000858     -0.004434      0.034495
      7.38471      1.99166     13.38790         0.009550     -0.005736      0.032318
      4.63213      2.74861     12.71813        -0.006711      0.019764      0.007354
      3.24365      5.14156     13.11358        -0.013434     -0.038829      0.294344
     -0.49331      5.68574     12.93352         0.006488      0.000400      0.010944
      8.77018      0.60069     13.29827        -0.008201     -0.012692     -0.002889
     -4.12504      8.18392     13.38659        -0.001832     -0.011394     -0.006988
      3.18487      0.53781     13.52419        -0.009672     -0.005706      0.006738
     -2.26931      7.93261     12.44170        -0.007197     -0.010301     -0.026164
      7.86080      2.84936     13.33267         0.003663     -0.006463      0.002972
      7.25189      1.75259     12.42045        -0.014278     -0.007056     -0.025515
      4.26310      3.62600     13.00550        -0.016813      0.026861      0.007737
      5.48796      2.59751     13.18689        -0.008190      0.018450     -0.001741
      3.48190      6.09198     13.04031         0.058442     -0.007213     -0.000655
      2.42736      5.01891     12.56737         0.034553      0.019287     -0.066334
     -1.00866      6.48504     13.23182        -0.000712     -0.011593     -0.003748
      0.20746      5.53803     13.59802         0.039530      0.018140     -0.017739
 -----------------------------------------------------------------------------------
    total drift:                               -0.008183     -0.010036     -0.007695


--------------------------------------------------------------------------------------------------------



  FREE ENERGIE OF THE ION-ELECTRON SYSTEM (eV)
  ---------------------------------------------------
  free  energy   TOTEN  =       -67.69711733 eV

  energy  without entropy=      -67.69711733  energy(sigma->0) =      -67.69711733
 


--------------------------------------------------------------------------------------------------------


    POTLOK:  cpu time    5.0549: real time    5.0616


--------------------------------------------------------------------------------------------------------


 stress matrix after NEB project (eV)
     -7.47767     -1.76741      0.37564
     -1.76741     -9.15390      0.18377
      0.37564      0.18377      2.30260
  FORCES: max atom, RMS     0.297198    0.046322
  FORCE total and by dimension    0.367669    0.294344
  Stress total and by dimension   12.312948    9.153901
     LOOP+:  cpu time  208.1381: real time  209.8194
 vacuum level on the upper side and lower side of the slab         2.269         3.184
    4ORBIT:  cpu time    0.0000: real time    0.0000
 BZINTS: Fermi energy: -0.642130;138.000000 electrons
         Band energy:-886.018510;  BLOECHL correction: -0.099848

 total amount of memory used by VASP MPI-rank0    62227. kBytes
=======================================================================

   base      :      30000. kBytes
   nonlr-proj:       6324. kBytes
   fftplans  :       6459. kBytes
   grid      :      11407. kBytes
   one-center:         24. kBytes
   wavefun   :       8013. kBytes
 
  
  
 General timing and accounting informations for this job:
 ========================================================
  
                  Total CPU time used (sec):      253.514
                            User time (sec):      245.489
                          System time (sec):        8.025
                         Elapsed time (sec):      273.204
  
                   Maximum memory used (kb):      269448.
                   Average memory used (kb):           0.
  
                          Minor page faults:       187030
                          Major page faults:            0
                 Voluntary context switches:        74716
