<?xml version="1.0" encoding="ISO-8859-1"?>
<modeling>
 <generator>
  <i name="program" type="string">vasp </i>
  <i name="version" type="string">5.4.4.18Apr17-6-g9f103f2a35  </i>
  <i name="subversion" type="string">(build Jun 08 2018 12:06:12) complex            parallel </i>
  <i name="platform" type="string">LinuxIFC </i>
  <i name="date" type="string">2019 06 06 </i>
  <i name="time" type="string">06:44:21 </i>
 </generator>
 <incar>
  <i type="string" name="SYSTEM"> Mg_slab_in_a_box</i>
  <i type="string" name="PREC">accurate</i>
  <i type="string" name="ALGO"> V</i>
  <i type="int" name="NELM">   300</i>
  <i type="int" name="NELMIN">     6</i>
  <i name="EDIFF">      0.00000500</i>
  <i name="ENCUT">    520.00000000</i>
  <i type="string" name="LREAL"> AUTO</i>
  <i type="logical" name="LPLANE"> T  </i>
  <i type="int" name="ISMEAR">    -5</i>
  <i type="logical" name="LWAVE"> F  </i>
  <i type="logical" name="LCHARG"> T  </i>
  <i type="logical" name="LVTOT"> T  </i>
  <i type="logical" name="LVHAR"> T  </i>
  <i type="logical" name="LSCALU"> F  </i>
  <i type="logical" name="LASPH"> T  </i>
  <i type="logical" name="LAECHG"> T  </i>
  <v type="int" name="KPOINT_BSE">    -1     0     0     0</v>
  <i type="int" name="NELM">   300</i>
  <i type="string" name="GGA"> BO</i>
  <i name="PARAM1">      0.18333333</i>
  <i name="PARAM2">      0.22000000</i>
  <i type="logical" name="LUSE_VDW"> T  </i>
  <i name="AGGAC">      0.00000000</i>
  <i type="logical" name="LDIPOL"> T  </i>
  <i type="int" name="IDIPOL">     3</i>
  <i type="logical" name="LASPH"> T  </i>
 </incar>
 <structure name="primitive_cell" >
  <crystal>
   <varray name="basis" >
    <v>       9.55575275       0.00000000       0.00000000 </v>
    <v>      -4.77787638       8.27552464       0.00000000 </v>
    <v>       0.00000000       0.00000000      32.62509537 </v>
   </varray>
   <i name="volume">   2579.95558872 </i>
   <varray name="rec_basis" >
    <v>       0.10464900       0.06041913       0.00000000 </v>
    <v>       0.00000000       0.12083826       0.00000000 </v>
    <v>       0.00000000       0.00000000       0.03065125 </v>
   </varray>
  </crystal>
  <varray name="positions" >
   <v>       0.00000000       0.00000000       0.00000000 </v>
   <v>       0.00000002      -0.33333328       0.00000000 </v>
   <v>      -0.33333330      -0.33333328       0.00000000 </v>
   <v>      -0.33333332       0.00000000       0.00000000 </v>
   <v>       0.33333334       0.00000000       0.00000000 </v>
   <v>       0.00000001       0.33333336       0.00000000 </v>
   <v>       0.33333335       0.33333336       0.00000000 </v>
   <v>      -0.22222216      -0.11111106       0.07982145 </v>
   <v>       0.11111116      -0.11111106       0.07982145 </v>
   <v>       0.11111113       0.22222222       0.07982145 </v>
   <v>      -0.22222219      -0.44444439       0.07982145 </v>
   <v>      -0.22222221       0.22222222       0.07982145 </v>
   <v>       0.44444450       0.22222222       0.07982145 </v>
   <v>      -0.00160620      -0.00065427       0.15781328 </v>
   <v>       0.33333336      -0.33333328       0.00000000 </v>
   <v>      -0.33333332       0.33333336       0.00000000 </v>
   <v>       0.44444450      -0.44444439       0.07982145 </v>
   <v>       0.44444451      -0.11111106       0.07982145 </v>
   <v>       0.11111114      -0.44444439       0.07982145 </v>
   <v>       0.33323557      -0.00060719       0.15703770 </v>
   <v>       0.33238780       0.33259781       0.15731740 </v>
   <v>      -0.33420814      -0.00147934       0.15721350 </v>
   <v>      -0.00062695       0.33257698       0.15732346 </v>
   <v>      -0.00166854      -0.33553460       0.15712782 </v>
   <v>      -0.33375652      -0.33419776       0.15780242 </v>
   <v>       0.33222368      -0.33431242       0.15793373 </v>
   <v>      -0.33437013       0.33264240       0.15803095 </v>
   <v>       0.10664387      -0.11366076       0.23349189 </v>
   <v>       0.10956947       0.21720524       0.23569199 </v>
   <v>      -0.22033488      -0.11100397       0.23627203 </v>
   <v>      -0.22690403       0.21983572       0.23472353 </v>
   <v>       0.44554317       0.22514559       0.23536181 </v>
   <v>      -0.22530893      -0.45006047       0.23631053 </v>
   <v>       0.44279066      -0.11589166       0.23514525 </v>
   <v>       0.44063742      -0.44501572       0.23547088 </v>
   <v>       0.11339064      -0.44236482       0.23561670 </v>
   <v>       0.32656007      -0.00203284       0.30800499 </v>
   <v>      -0.00307620       0.33211239       0.30972352 </v>
   <v>      -0.33855754      -0.33631832       0.31166115 </v>
   <v>      -0.00210979      -0.33151855       0.31239501 </v>
   <v>      -0.33783367      -0.00478979       0.31299282 </v>
   <v>      -0.00467608      -0.00206487       0.32817955 </v>
   <v>       0.32710864       0.33408524       0.31423661 </v>
   <v>      -0.34044683       0.32305143       0.32401787 </v>
   <v>       0.32479940      -0.33484147       0.33049889 </v>
   <v>       0.24180005      -0.04143760       0.38135359 </v>
   <v>      -0.13520771       0.21177932       0.38070236 </v>
   <v>      -0.02938062      -0.01375421       0.39590463 </v>
   <v>      -0.44274079      -0.39352373       0.38520549 </v>
   <v>      -0.26755072      -0.26385599       0.39970167 </v>
   <v>      -0.04591592       0.07258670       0.40760855 </v>
   <v>       0.06278434      -0.01106961       0.41031580 </v>
   <v>      -0.34990663      -0.37870232       0.40194764 </v>
   <v>       0.26214474      -0.03592532       0.41165624 </v>
   <v>      -0.10686286       0.24066886       0.41035587 </v>
   <v>      -0.00521865       0.34431189       0.40866287 </v>
   <v>      -0.34918323       0.33213733       0.38982655 </v>
   <v>      -0.33479153       0.43815931       0.39863486 </v>
   <v>       0.29190332      -0.31294555       0.39642871 </v>
   <v>       0.28626555      -0.21635873       0.40557171 </v>
   <v>       0.36578826       0.06498858       0.41453329 </v>
   <v>      -0.26875158       0.31387826       0.40419478 </v>
   <v>       0.35631340      -0.33079372       0.41679644 </v>
  </varray>
 </structure>
 <varray name="primitive_index" >
  <v type="int" >        1 </v>
  <v type="int" >        7 </v>
  <v type="int" >       25 </v>
  <v type="int" >       19 </v>
  <v type="int" >       10 </v>
  <v type="int" >        4 </v>
  <v type="int" >       13 </v>
  <v type="int" >       44 </v>
  <v type="int" >       32 </v>
  <v type="int" >       28 </v>
  <v type="int" >       42 </v>
  <v type="int" >       40 </v>
  <v type="int" >       34 </v>
  <v type="int" >        2 </v>
  <v type="int" >       16 </v>
  <v type="int" >       22 </v>
  <v type="int" >       36 </v>
  <v type="int" >       38 </v>
  <v type="int" >       30 </v>
  <v type="int" >       11 </v>
  <v type="int" >       14 </v>
  <v type="int" >       20 </v>
  <v type="int" >        5 </v>
  <v type="int" >        8 </v>
  <v type="int" >       26 </v>
  <v type="int" >       17 </v>
  <v type="int" >       23 </v>
  <v type="int" >       33 </v>
  <v type="int" >       29 </v>
  <v type="int" >       45 </v>
  <v type="int" >       41 </v>
  <v type="int" >       35 </v>
  <v type="int" >       43 </v>
  <v type="int" >       39 </v>
  <v type="int" >       37 </v>
  <v type="int" >       31 </v>
  <v type="int" >       12 </v>
  <v type="int" >        6 </v>
  <v type="int" >       27 </v>
  <v type="int" >        9 </v>
  <v type="int" >       21 </v>
  <v type="int" >        3 </v>
  <v type="int" >       15 </v>
  <v type="int" >       24 </v>
  <v type="int" >       18 </v>
  <v type="int" >       55 </v>
  <v type="int" >       57 </v>
  <v type="int" >       46 </v>
  <v type="int" >       61 </v>
  <v type="int" >       60 </v>
  <v type="int" >       52 </v>
  <v type="int" >       53 </v>
  <v type="int" >       50 </v>
  <v type="int" >       47 </v>
  <v type="int" >       48 </v>
  <v type="int" >       56 </v>
  <v type="int" >       49 </v>
  <v type="int" >       58 </v>
  <v type="int" >       51 </v>
  <v type="int" >       62 </v>
  <v type="int" >       54 </v>
  <v type="int" >       59 </v>
  <v type="int" >       63 </v>
 </varray>
 <kpoints>
  <generation param="Gamma">
   <v type="int" name="divisions">       3        3        1 </v>
   <v name="usershift">      0.00000000       0.00000000       0.00000000 </v>
   <v name="genvec1">      0.33333333       0.00000000       0.00000000 </v>
   <v name="genvec2">      0.00000000       0.33333333       0.00000000 </v>
   <v name="genvec3">      0.00000000       0.00000000       1.00000000 </v>
   <v name="shift">      0.00000000       0.00000000       0.00000000 </v>
  </generation>
  <varray name="kpointlist" >
   <v>       0.00000000       0.00000000       0.00000000 </v>
   <v>       0.33333333      -0.00000000       0.00000000 </v>
   <v>       0.00000000       0.33333333       0.00000000 </v>
   <v>       0.33333333       0.33333333       0.00000000 </v>
   <v>      -0.33333333       0.33333333       0.00000000 </v>
  </varray>
  <varray name="weights" >
   <v>       0.11111111 </v>
   <v>       0.22222222 </v>
   <v>       0.22222222 </v>
   <v>       0.22222222 </v>
   <v>       0.22222222 </v>
  </varray>
  <varray name="tetrahedronlist"  type="int" >
   <v type="int" >        2        2        3        3        4 </v>
   <v type="int" >        2        1        2        3        3 </v>
   <v type="int" >        2        1        1        2        3 </v>
   <v type="int" >        2        2        3        4        4 </v>
   <v type="int" >        2        2        2        3        4 </v>
   <v type="int" >        2        1        2        2        3 </v>
   <v type="int" >        2        2        4        4        5 </v>
   <v type="int" >        2        2        2        4        4 </v>
   <v type="int" >        4        2        2        2        4 </v>
   <v type="int" >        2        2        4        5        5 </v>
   <v type="int" >        2        2        2        4        5 </v>
   <v type="int" >        2        1        3        5        5 </v>
   <v type="int" >        2        1        2        5        5 </v>
   <v type="int" >        2        1        2        2        5 </v>
   <v type="int" >        2        1        3        3        5 </v>
   <v type="int" >        2        1        1        3        5 </v>
   <v type="int" >        2        1        1        2        5 </v>
   <v type="int" >        2        3        3        4        5 </v>
   <v type="int" >        4        3        3        3        4 </v>
   <v type="int" >        2        3        4        5        5 </v>
   <v type="int" >        2        3        4        4        5 </v>
   <v type="int" >        2        3        3        4        4 </v>
   <v type="int" >        4        4        5        5        5 </v>
   <v type="int" >        2        4        4        5        5 </v>
  </varray>
  <i name="volumeweight">      0.01851852 </i>
 </kpoints>
 <parameters>
  <separator name="general" >
   <i type="string" name="SYSTEM">Mg_slab_in_a_box</i>
   <i type="logical" name="LCOMPAT"> F  </i>
  </separator>
  <separator name="electronic" >
   <i type="string" name="PREC">accura</i>
   <i name="ENMAX">    520.00000000</i>
   <i name="ENAUG">    605.39200000</i>
   <i name="EDIFF">      0.00000500</i>
   <i type="int" name="IALGO">    48</i>
   <i type="int" name="IWAVPR">    10</i>
   <i type="int" name="NBANDS">   102</i>
   <i name="NELECT">    138.00000000</i>
   <i type="int" name="TURBO">     0</i>
   <i type="int" name="IRESTART">     0</i>
   <i type="int" name="NREBOOT">     0</i>
   <i type="int" name="NMIN">     0</i>
   <i name="EREF">      0.00000000</i>
   <separator name="electronic smearing" >
    <i type="int" name="ISMEAR">    -5</i>
    <i name="SIGMA">      0.20000000</i>
    <i name="KSPACING">      0.50000000</i>
    <i type="logical" name="KGAMMA"> T  </i>
   </separator>
   <separator name="electronic projectors" >
    <i type="logical" name="LREAL"> T  </i>
    <v name="ROPT">     -0.00025000     -0.00025000     -0.00025000</v>
    <i type="int" name="LMAXPAW">  -100</i>
    <i type="int" name="LMAXMIX">     2</i>
    <i type="logical" name="NLSPLINE"> F  </i>
   </separator>
   <separator name="electronic startup" >
    <i type="int" name="ISTART">     0</i>
    <i type="int" name="ICHARG">     2</i>
    <i type="int" name="INIWAV">     1</i>
   </separator>
   <separator name="electronic spin" >
    <i type="int" name="ISPIN">     1</i>
    <i type="logical" name="LNONCOLLINEAR"> F  </i>
    <v name="MAGMOM">      1.00000000      1.00000000      1.00000000      1.00000000      1.00000000      1.00000000      1.00000000      1.00000000      1.00000000      1.00000000      1.00000000      1.00000000      1.00000000      1.00000000      1.00000000      1.00000000      1.00000000      1.00000000      1.00000000      1.00000000
      1.00000000      1.00000000      1.00000000      1.00000000      1.00000000      1.00000000      1.00000000      1.00000000      1.00000000      1.00000000      1.00000000      1.00000000      1.00000000      1.00000000      1.00000000      1.00000000      1.00000000      1.00000000      1.00000000      1.00000000
      1.00000000      1.00000000      1.00000000      1.00000000      1.00000000      1.00000000      1.00000000      1.00000000      1.00000000      1.00000000      1.00000000      1.00000000      1.00000000      1.00000000      1.00000000      1.00000000      1.00000000      1.00000000      1.00000000      1.00000000
      1.00000000      1.00000000      1.00000000</v>
    <i name="NUPDOWN">     -1.00000000</i>
    <i type="logical" name="LSORBIT"> F  </i>
    <v name="SAXIS">      0.00000000      0.00000000      1.00000000</v>
    <i type="logical" name="LSPIRAL"> F  </i>
    <v name="QSPIRAL">      0.00000000      0.00000000      0.00000000</v>
    <i type="logical" name="LZEROZ"> F  </i>
   </separator>
   <separator name="electronic exchange-correlation" >
    <i type="logical" name="LASPH"> T  </i>
    <i type="logical" name="LMETAGGA"> F  </i>
   </separator>
   <separator name="electronic convergence" >
    <i type="int" name="NELM">   300</i>
    <i type="int" name="NELMDL">   -12</i>
    <i type="int" name="NELMIN">     6</i>
    <i name="ENINI">    520.00000000</i>
    <separator name="electronic convergence detail" >
     <i type="logical" name="LDIAG"> T  </i>
     <i type="logical" name="LSUBROT"> F  </i>
     <i name="WEIMIN">      0.00000000</i>
     <i name="EBREAK">      0.00000001</i>
     <i name="DEPER">      0.30000000</i>
     <i type="int" name="NRMM">     4</i>
     <i name="TIME">      0.40000000</i>
    </separator>
   </separator>
   <separator name="electronic mixer" >
    <i name="AMIX">      0.40000000</i>
    <i name="BMIX">      1.00000000</i>
    <i name="AMIN">      0.10000000</i>
    <i name="AMIX_MAG">      1.60000000</i>
    <i name="BMIX_MAG">      1.00000000</i>
    <separator name="electronic mixer details" >
     <i type="int" name="IMIX">     4</i>
     <i type="logical" name="MIXFIRST"> F  </i>
     <i type="int" name="MAXMIX">   -45</i>
     <i name="WC">    100.00000000</i>
     <i type="int" name="INIMIX">     1</i>
     <i type="int" name="MIXPRE">     1</i>
     <i type="int" name="MREMOVE">     5</i>
    </separator>
   </separator>
   <separator name="electronic dipolcorrection" >
    <i type="logical" name="LDIPOL"> T  </i>
    <i type="logical" name="LMONO"> F  </i>
    <i type="int" name="IDIPOL">     3</i>
    <i name="EPSILON">      1.00000000</i>
    <v name="DIPOL">   -100.00000000   -100.00000000   -100.00000000</v>
    <i name="EFIELD">      0.00000000</i>
   </separator>
  </separator>
  <separator name="grids" >
   <i type="int" name="NGX">    72</i>
   <i type="int" name="NGY">    72</i>
   <i type="int" name="NGZ">   250</i>
   <i type="int" name="NGXF">   144</i>
   <i type="int" name="NGYF">   144</i>
   <i type="int" name="NGZF">   500</i>
   <i type="logical" name="ADDGRID"> F  </i>
  </separator>
  <separator name="ionic" >
   <i type="int" name="NSW">     0</i>
   <i type="int" name="IBRION">    -1</i>
   <i type="int" name="MDALGO">     0</i>
   <i type="int" name="ISIF">     2</i>
   <i name="PSTRESS">      0.00000000</i>
   <i name="EDIFFG">      0.00005000</i>
   <i type="int" name="NFREE">     0</i>
   <i name="POTIM">      0.50000000</i>
   <i name="SMASS">     -3.00000000</i>
   <i name="SCALEE">      1.00000000</i>
  </separator>
  <separator name="ionic md" >
   <i name="TEBEG">      0.00010000</i>
   <i name="TEEND">      0.00010000</i>
   <i type="int" name="NBLOCK">     1</i>
   <i type="int" name="KBLOCK">     1</i>
   <i type="int" name="NPACO">   256</i>
   <i name="APACO">     16.00000000</i>
  </separator>
  <separator name="symmetry" >
   <i type="int" name="ISYM">     2</i>
   <i name="SYMPREC">      0.00001000</i>
  </separator>
  <separator name="dos" >
   <i type="int" name="LORBIT">     0</i>
   <v name="RWIGS">     -1.00000000     -1.00000000     -1.00000000</v>
   <i type="int" name="NEDOS">   301</i>
   <i name="EMIN">     10.00000000</i>
   <i name="EMAX">    -10.00000000</i>
   <i name="EFERMI">      0.00000000</i>
  </separator>
  <separator name="writing" >
   <i type="int" name="NWRITE">     2</i>
   <i type="logical" name="LWAVE"> F  </i>
   <i type="logical" name="LDOWNSAMPLE"> F  </i>
   <i type="logical" name="LCHARG"> T  </i>
   <i type="logical" name="LPARD"> F  </i>
   <i type="logical" name="LVTOT"> F  </i>
   <i type="logical" name="LVHAR"> T  </i>
   <i type="logical" name="LELF"> F  </i>
   <i type="logical" name="LOPTICS"> F  </i>
   <v name="STM">      0.00000000      0.00000000      0.00000000      0.00000000      0.00000000      0.00000000      0.00000000</v>
  </separator>
  <separator name="performance" >
   <i type="int" name="NPAR">     3</i>
   <i type="int" name="NSIM">     4</i>
   <i type="int" name="NBLK">    -1</i>
   <i type="logical" name="LPLANE"> T  </i>
   <i type="logical" name="LSCALAPACK"> T  </i>
   <i type="logical" name="LSCAAWARE"> F  </i>
   <i type="logical" name="LSCALU"> F  </i>
   <i type="logical" name="LASYNC"> F  </i>
   <i type="logical" name="LORBITALREAL"> F  </i>
  </separator>
  <separator name="miscellaneous" >
   <i type="int" name="IDIOT">     3</i>
   <i type="int" name="ISPECIAL">     0</i>
   <i type="logical" name="LMUSIC"> F  </i>
   <v name="POMASS">     24.30500000     16.00000000      1.00000000</v>
   <v name="DARWINR">      0.00000000      0.00000000      0.00000000</v>
   <v name="DARWINV">      1.00000000      1.00000000      1.00000000</v>
   <i type="logical" name="LCORR"> T  </i>
  </separator>
  <i type="logical" name="GGA_COMPAT"> T  </i>
  <i type="logical" name="LBERRY"> F  </i>
  <i type="int" name="ICORELEVEL">     0</i>
  <i type="logical" name="LDAU"> F  </i>
  <i type="int" name="I_CONSTRAINED_M">     0</i>
  <separator name="electronic exchange-correlation" >
   <i type="string" name="GGA">BO</i>
   <i type="int" name="VOSKOWN">     0</i>
   <i type="logical" name="LHFCALC"> F  </i>
   <i type="string" name="PRECFOCK"></i>
   <i type="logical" name="LSYMGRAD"> F  </i>
   <i type="logical" name="LHFONE"> F  </i>
   <i type="logical" name="LRHFCALC"> F  </i>
   <i type="logical" name="LTHOMAS"> F  </i>
   <i type="logical" name="LMODELHF"> F  </i>
   <i name="ENCUT4O">     -1.00000000</i>
   <i type="int" name="EXXOEP">     0</i>
   <i type="int" name="FOURORBIT">     0</i>
   <i name="AEXX">      0.00000000</i>
   <i name="HFALPHA">      0.00000000</i>
   <i name="MCALPHA">      0.00000000</i>
   <i name="ALDAX">      1.00000000</i>
   <i name="AGGAX">      1.00000000</i>
   <i name="ALDAC">      1.00000000</i>
   <i name="AGGAC">      0.00000000</i>
   <i type="int" name="NKREDX">     1</i>
   <i type="int" name="NKREDY">     1</i>
   <i type="int" name="NKREDZ">     1</i>
   <i type="logical" name="SHIFTRED"> F  </i>
   <i type="logical" name="ODDONLY"> F  </i>
   <i type="logical" name="EVENONLY"> F  </i>
   <i type="int" name="LMAXFOCK">     0</i>
   <i type="int" name="NMAXFOCKAE">     0</i>
   <i type="logical" name="LFOCKAEDFT"> F  </i>
   <i name="HFSCREEN">      0.00000000</i>
   <i name="HFSCREENC">      0.00000000</i>
   <i type="int" name="NBANDSGWLOW">     0</i>
  </separator>
  <separator name="vdW DFT" >
   <i type="logical" name="LUSE_VDW"> T  </i>
   <i name="Zab_VDW">     -0.84910000</i>
   <i name="PARAM1">      0.18333333</i>
   <i name="PARAM2">      0.22000000</i>
   <i name="PARAM3">      0.00000000</i>
  </separator>
  <separator name="model GW" >
   <i type="int" name="MODEL_GW">     0</i>
   <i name="MODEL_EPS0">     24.57100561</i>
   <i name="MODEL_ALPHA">      1.00000000</i>
  </separator>
  <separator name="linear response parameters" >
   <i type="logical" name="LEPSILON"> F  </i>
   <i type="logical" name="LRPA"> F  </i>
   <i type="logical" name="LNABLA"> F  </i>
   <i type="logical" name="LVEL"> F  </i>
   <i type="int" name="KINTER">     0</i>
   <i name="CSHIFT">      0.10000000</i>
   <i name="OMEGAMAX">     -1.00000000</i>
   <i name="DEG_THRESHOLD">      0.00200000</i>
   <i name="RTIME">     -0.10000000</i>
   <i name="WPLASMAI">      0.00000000</i>
   <v name="DFIELD">      0.00000000      0.00000000      0.00000000</v>
   <v name="WPLASMA">      0.00000000      0.00000000      0.00000000      0.00000000      0.00000000      0.00000000      0.00000000      0.00000000      0.00000000</v>
  </separator>
  <separator name="orbital magnetization" >
   <i type="logical" name="NUCIND"> F  </i>
   <v name="MAGPOS">      0.00000000      0.00000000      0.00000000</v>
   <i type="logical" name="LNICSALL"> T  </i>
   <i type="logical" name="ORBITALMAG"> F  </i>
   <i type="logical" name="LMAGBLOCH"> F  </i>
   <i type="logical" name="LCHIMAG"> F  </i>
   <i type="logical" name="LGAUGE"> T  </i>
   <i type="int" name="MAGATOM">     0</i>
   <v name="MAGDIPOL">      0.00000000      0.00000000      0.00000000</v>
   <v name="AVECCONST">      0.00000000      0.00000000      0.00000000</v>
  </separator>
  <separator name="response functions" >
   <i type="logical" name="LADDER"> F  </i>
   <i type="logical" name="LRPAFORCE"> F  </i>
   <i type="logical" name="LFXC"> F  </i>
   <i type="logical" name="LHARTREE"> T  </i>
   <i type="int" name="IBSE">     0</i>
   <v type="int" name="KPOINT">    -1     0     0     0</v>
   <i type="logical" name="LTCTE"> F  </i>
   <i type="logical" name="LTETE"> F  </i>
   <i type="logical" name="LTRIPLET"> F  </i>
   <i type="logical" name="LFXCEPS"> F  </i>
   <i type="logical" name="LFXHEG"> F  </i>
   <i type="int" name="NATURALO">     2</i>
   <i type="logical" name="L2ORDER"> F  </i>
   <i type="logical" name="LMP2LT"> F  </i>
   <i type="logical" name="LUSEW"> F  </i>
   <i name="ENCUTGW">     -2.00000000</i>
   <i name="ENCUTGWSOFT">     -2.00000000</i>
   <i name="ENCUTLF">     -1.00000000</i>
   <i type="int" name="LMAXMP2">    -1</i>
   <i name="SCISSOR">      0.00000000</i>
   <i type="int" name="NOMEGA">     0</i>
   <i type="int" name="NOMEGAR">     0</i>
   <i type="int" name="NBANDSGW">    -1</i>
   <i type="int" name="NBANDSO">    -1</i>
   <i type="int" name="NBANDSV">    -1</i>
   <i type="int" name="NELM">   300</i>
   <i type="int" name="NELMHF">     1</i>
   <i type="int" name="DIM">     3</i>
   <i type="int" name="ANTIRES">     0</i>
   <i name="OMEGAMAX">    -30.00000000</i>
   <i name="OMEGAMIN">    -30.00000000</i>
   <i name="OMEGATL">   -200.00000000</i>
   <i type="int" name="OMEGAGRID">   140</i>
   <i name="CSHIFT">     -0.10000000</i>
   <i type="logical" name="SELFENERGY"> F  </i>
   <i type="logical" name="LSPECTRAL"> F  </i>
   <i type="logical" name="LSPECTRALGW"> F  </i>
   <i type="logical" name="LSINGLES"> F  </i>
   <i type="logical" name="LFERMIGW"> F  </i>
   <i type="logical" name="ODDONLYGW"> F  </i>
   <i type="logical" name="EVENONLYGW"> F  </i>
   <i type="int" name="NKREDLFX">     1</i>
   <i type="int" name="NKREDLFY">     1</i>
   <i type="int" name="NKREDLFZ">     1</i>
   <i type="int" name="MAXMEM">  2800</i>
   <i type="int" name="TELESCOPE">     0</i>
   <i type="int" name="TAUPAR">     1</i>
   <i type="int" name="OMEGAPAR">    -1</i>
   <i name="LAMBDA">      1.00000000</i>
  </separator>
  <separator name="External order field" >
   <i name="OFIELD_KAPPA">      0.00000000</i>
   <v name="OFIELD_K">      0.00000000      0.00000000      0.00000000</v>
   <i name="OFIELD_Q6_NEAR">      0.00000000</i>
   <i name="OFIELD_Q6_FAR">      0.00000000</i>
   <i name="OFIELD_A">      0.00000000</i>
  </separator>
 </parameters>
 <atominfo>
  <atoms>      63 </atoms>
  <types>       3 </types>
  <array name="atoms" >
   <dimension dim="1">ion</dimension>
   <field type="string">element</field>
   <field type="int">atomtype</field>
   <set>
    <rc><c>Mg</c><c>   1</c></rc>
    <rc><c>Mg</c><c>   1</c></rc>
    <rc><c>Mg</c><c>   1</c></rc>
    <rc><c>Mg</c><c>   1</c></rc>
    <rc><c>Mg</c><c>   1</c></rc>
    <rc><c>Mg</c><c>   1</c></rc>
    <rc><c>Mg</c><c>   1</c></rc>
    <rc><c>Mg</c><c>   1</c></rc>
    <rc><c>Mg</c><c>   1</c></rc>
    <rc><c>Mg</c><c>   1</c></rc>
    <rc><c>Mg</c><c>   1</c></rc>
    <rc><c>Mg</c><c>   1</c></rc>
    <rc><c>Mg</c><c>   1</c></rc>
    <rc><c>Mg</c><c>   1</c></rc>
    <rc><c>Mg</c><c>   1</c></rc>
    <rc><c>Mg</c><c>   1</c></rc>
    <rc><c>Mg</c><c>   1</c></rc>
    <rc><c>Mg</c><c>   1</c></rc>
    <rc><c>Mg</c><c>   1</c></rc>
    <rc><c>Mg</c><c>   1</c></rc>
    <rc><c>Mg</c><c>   1</c></rc>
    <rc><c>Mg</c><c>   1</c></rc>
    <rc><c>Mg</c><c>   1</c></rc>
    <rc><c>Mg</c><c>   1</c></rc>
    <rc><c>Mg</c><c>   1</c></rc>
    <rc><c>Mg</c><c>   1</c></rc>
    <rc><c>Mg</c><c>   1</c></rc>
    <rc><c>Mg</c><c>   1</c></rc>
    <rc><c>Mg</c><c>   1</c></rc>
    <rc><c>Mg</c><c>   1</c></rc>
    <rc><c>Mg</c><c>   1</c></rc>
    <rc><c>Mg</c><c>   1</c></rc>
    <rc><c>Mg</c><c>   1</c></rc>
    <rc><c>Mg</c><c>   1</c></rc>
    <rc><c>Mg</c><c>   1</c></rc>
    <rc><c>Mg</c><c>   1</c></rc>
    <rc><c>Mg</c><c>   1</c></rc>
    <rc><c>Mg</c><c>   1</c></rc>
    <rc><c>Mg</c><c>   1</c></rc>
    <rc><c>Mg</c><c>   1</c></rc>
    <rc><c>Mg</c><c>   1</c></rc>
    <rc><c>Mg</c><c>   1</c></rc>
    <rc><c>Mg</c><c>   1</c></rc>
    <rc><c>Mg</c><c>   1</c></rc>
    <rc><c>Mg</c><c>   1</c></rc>
    <rc><c>O </c><c>   2</c></rc>
    <rc><c>O </c><c>   2</c></rc>
    <rc><c>O </c><c>   2</c></rc>
    <rc><c>O </c><c>   2</c></rc>
    <rc><c>O </c><c>   2</c></rc>
    <rc><c>O </c><c>   2</c></rc>
    <rc><c>H </c><c>   3</c></rc>
    <rc><c>H </c><c>   3</c></rc>
    <rc><c>H </c><c>   3</c></rc>
    <rc><c>H </c><c>   3</c></rc>
    <rc><c>H </c><c>   3</c></rc>
    <rc><c>H </c><c>   3</c></rc>
    <rc><c>H </c><c>   3</c></rc>
    <rc><c>H </c><c>   3</c></rc>
    <rc><c>H </c><c>   3</c></rc>
    <rc><c>H </c><c>   3</c></rc>
    <rc><c>H </c><c>   3</c></rc>
    <rc><c>H </c><c>   3</c></rc>
   </set>
  </array>
  <array name="atomtypes" >
   <dimension dim="1">type</dimension>
   <field type="int">atomspertype</field>
   <field type="string">element</field>
   <field>mass</field>
   <field>valence</field>
   <field type="string">pseudopotential</field>
   <set>
    <rc><c>  45</c><c>Mg</c><c>     24.30500000</c><c>      2.00000000</c><c>  PAW_PBE Mg 13Apr2007                  </c></rc>
    <rc><c>   6</c><c>O </c><c>     16.00000000</c><c>      6.00000000</c><c>  PAW_PBE O 08Apr2002                   </c></rc>
    <rc><c>  12</c><c>H </c><c>      1.00000000</c><c>      1.00000000</c><c>  PAW_PBE H 15Jun2001                   </c></rc>
   </set>
  </array>
 </atominfo>
 <structure name="initialpos" >
  <crystal>
   <varray name="basis" >
    <v>       9.55575275       0.00000000       0.00000000 </v>
    <v>      -4.77787638       8.27552464       0.00000000 </v>
    <v>       0.00000000       0.00000000      32.62509537 </v>
   </varray>
   <i name="volume">   2579.95558872 </i>
   <varray name="rec_basis" >
    <v>       0.10464900       0.06041913       0.00000000 </v>
    <v>       0.00000000       0.12083826       0.00000000 </v>
    <v>       0.00000000       0.00000000       0.03065125 </v>
   </varray>
  </crystal>
  <varray name="positions" >
   <v>       0.00000000       0.00000000       0.00000000 </v>
   <v>       0.99839380       0.99934573       0.15781328 </v>
   <v>       0.99532392       0.99793513       0.32817955 </v>
   <v>       0.00000001       0.33333336       0.00000000 </v>
   <v>       0.99937305       0.33257698       0.15732346 </v>
   <v>       0.99692380       0.33211239       0.30972352 </v>
   <v>       0.00000002       0.66666672       0.00000000 </v>
   <v>       0.99833146       0.66446540       0.15712782 </v>
   <v>       0.99789021       0.66848145       0.31239501 </v>
   <v>       0.33333334       0.00000000       0.00000000 </v>
   <v>       0.33323557       0.99939281       0.15703770 </v>
   <v>       0.32656007       0.99796716       0.30800499 </v>
   <v>       0.33333335       0.33333336       0.00000000 </v>
   <v>       0.33238780       0.33259781       0.15731740 </v>
   <v>       0.32710864       0.33408524       0.31423661 </v>
   <v>       0.33333336       0.66666672       0.00000000 </v>
   <v>       0.33222368       0.66568758       0.15793373 </v>
   <v>       0.32479940       0.66515853       0.33049889 </v>
   <v>       0.66666668       0.00000000       0.00000000 </v>
   <v>       0.66579186       0.99852066       0.15721350 </v>
   <v>       0.66216633       0.99521021       0.31299282 </v>
   <v>       0.66666668       0.33333336       0.00000000 </v>
   <v>       0.66562987       0.33264240       0.15803095 </v>
   <v>       0.65955317       0.32305143       0.32401787 </v>
   <v>       0.66666670       0.66666672       0.00000000 </v>
   <v>       0.66624348       0.66580224       0.15780242 </v>
   <v>       0.66144246       0.66368168       0.31166115 </v>
   <v>       0.11111113       0.22222222       0.07982145 </v>
   <v>       0.10956947       0.21720524       0.23569199 </v>
   <v>       0.11111114       0.55555561       0.07982145 </v>
   <v>       0.11339064       0.55763518       0.23561670 </v>
   <v>       0.11111116       0.88888894       0.07982145 </v>
   <v>       0.10664387       0.88633924       0.23349189 </v>
   <v>       0.44444450       0.22222222       0.07982145 </v>
   <v>       0.44554317       0.22514559       0.23536181 </v>
   <v>       0.44444450       0.55555561       0.07982145 </v>
   <v>       0.44063742       0.55498428       0.23547088 </v>
   <v>       0.44444451       0.88888894       0.07982145 </v>
   <v>       0.44279066       0.88410834       0.23514525 </v>
   <v>       0.77777779       0.22222222       0.07982145 </v>
   <v>       0.77309597       0.21983572       0.23472353 </v>
   <v>       0.77777781       0.55555561       0.07982145 </v>
   <v>       0.77469107       0.54993953       0.23631053 </v>
   <v>       0.77777784       0.88888894       0.07982145 </v>
   <v>       0.77966512       0.88899603       0.23627203 </v>
   <v>       0.97061938       0.98624579       0.39590463 </v>
   <v>       0.26214474       0.96407468       0.41165624 </v>
   <v>       0.89313714       0.24066886       0.41035587 </v>
   <v>       0.65081677       0.33213733       0.38982655 </v>
   <v>       0.65009337       0.62129768       0.40194764 </v>
   <v>       0.29190332       0.68705445       0.39642871 </v>
   <v>       0.95408408       0.07258670       0.40760855 </v>
   <v>       0.06278434       0.98893039       0.41031580 </v>
   <v>       0.36578826       0.06498858       0.41453329 </v>
   <v>       0.24180005       0.95856240       0.38135359 </v>
   <v>       0.99478135       0.34431189       0.40866287 </v>
   <v>       0.86479229       0.21177932       0.38070236 </v>
   <v>       0.66520847       0.43815931       0.39863486 </v>
   <v>       0.73124842       0.31387826       0.40419478 </v>
   <v>       0.73244928       0.73614401       0.39970167 </v>
   <v>       0.55725921       0.60647627       0.38520549 </v>
   <v>       0.28626555       0.78364127       0.40557171 </v>
   <v>       0.35631340       0.66920628       0.41679644 </v>
  </varray>
  <varray name="selective"  type="logical" >
   <v type="logical" >  F  F  F </v>
   <v type="logical" >  T  T  T </v>
   <v type="logical" >  T  T  T </v>
   <v type="logical" >  F  F  F </v>
   <v type="logical" >  T  T  T </v>
   <v type="logical" >  T  T  T </v>
   <v type="logical" >  F  F  F </v>
   <v type="logical" >  T  T  T </v>
   <v type="logical" >  T  T  T </v>
   <v type="logical" >  F  F  F </v>
   <v type="logical" >  T  T  T </v>
   <v type="logical" >  T  T  T </v>
   <v type="logical" >  F  F  F </v>
   <v type="logical" >  T  T  T </v>
   <v type="logical" >  T  T  T </v>
   <v type="logical" >  F  F  F </v>
   <v type="logical" >  T  T  T </v>
   <v type="logical" >  T  T  T </v>
   <v type="logical" >  F  F  F </v>
   <v type="logical" >  T  T  T </v>
   <v type="logical" >  T  T  T </v>
   <v type="logical" >  F  F  F </v>
   <v type="logical" >  T  T  T </v>
   <v type="logical" >  T  T  T </v>
   <v type="logical" >  F  F  F </v>
   <v type="logical" >  T  T  T </v>
   <v type="logical" >  T  T  T </v>
   <v type="logical" >  F  F  F </v>
   <v type="logical" >  T  T  T </v>
   <v type="logical" >  F  F  F </v>
   <v type="logical" >  T  T  T </v>
   <v type="logical" >  F  F  F </v>
   <v type="logical" >  T  T  T </v>
   <v type="logical" >  F  F  F </v>
   <v type="logical" >  T  T  T </v>
   <v type="logical" >  F  F  F </v>
   <v type="logical" >  T  T  T </v>
   <v type="logical" >  F  F  F </v>
   <v type="logical" >  T  T  T </v>
   <v type="logical" >  F  F  F </v>
   <v type="logical" >  T  T  T </v>
   <v type="logical" >  F  F  F </v>
   <v type="logical" >  T  T  T </v>
   <v type="logical" >  F  F  F </v>
   <v type="logical" >  T  T  T </v>
   <v type="logical" >  T  T  T </v>
   <v type="logical" >  T  T  T </v>
   <v type="logical" >  T  T  T </v>
   <v type="logical" >  T  T  T </v>
   <v type="logical" >  T  T  T </v>
   <v type="logical" >  T  T  T </v>
   <v type="logical" >  T  T  T </v>
   <v type="logical" >  T  T  T </v>
   <v type="logical" >  T  T  T </v>
   <v type="logical" >  T  T  T </v>
   <v type="logical" >  T  T  T </v>
   <v type="logical" >  T  T  T </v>
   <v type="logical" >  T  T  T </v>
   <v type="logical" >  T  T  T </v>
   <v type="logical" >  T  T  T </v>
   <v type="logical" >  T  T  T </v>
   <v type="logical" >  T  T  T </v>
   <v type="logical" >  T  T  T </v>
  </varray>
  <nose>
   <v>      -3.00000000       0.00000000       0.00010000       0.00010000 </v>
  </nose>
 </structure>
 <calculation>
  <scstep>
   <time name="diag">    0.48    0.48</time>
   <time name="diis">    1.05    1.05</time>
   <time name="orth">    0.07    0.07</time>
   <time name="total">    7.35    7.73</time>
   <dipole>
    <v name="dipole">      0.00000000       0.00000000      -0.00040190 </v>
    <i name="Tr[quadrupol]">  -1835.60766103 </i>
    <i name="Echarged">      0.00000000 </i>
    <i name="Edipol_quadrupol">      0.00000000 </i>
    <i name="Eion">      0.00000000 </i>
   </dipole>
   <energy>
    <i name="alphaZ">     63.16543847 </i>
    <i name="ewald">  12828.47793374 </i>
    <i name="hartreedc"> -16052.54823292 </i>
    <i name="XCdc">  -2050.82795793 </i>
    <i name="pawpsdc">   5135.15659847 </i>
    <i name="pawaedc">  -2719.01140655 </i>
    <i name="eentropy">      0.00000000 </i>
    <i name="bandstr">    212.74697768 </i>
    <i name="atom">   3827.98814510 </i>
    <i name="e_fr_energy">   1245.14749607 </i>
    <i name="e_wo_entrp">   1245.14749607 </i>
    <i name="e_0_energy">   1245.14749607 </i>
   </energy>
  </scstep>
  <scstep>
   <time name="diag">    0.50    0.51</time>
   <time name="diis">    1.05    1.05</time>
   <time name="orth">    0.07    0.07</time>
   <time name="total">    1.63    1.64</time>
   <dipole>
    <v name="dipole">      0.00000000       0.00000000      -0.00040190 </v>
    <i name="Tr[quadrupol]">  -1835.60766103 </i>
    <i name="Echarged">      0.00000000 </i>
    <i name="Edipol_quadrupol">      0.00000000 </i>
    <i name="Eion">      0.00000000 </i>
   </dipole>
   <energy>
    <i name="e_fr_energy">    546.88786067 </i>
    <i name="e_wo_entrp">    546.88786067 </i>
    <i name="e_0_energy">    546.88786067 </i>
   </energy>
  </scstep>
  <scstep>
   <time name="diag">    0.49    0.52</time>
   <time name="diis">    1.06    1.06</time>
   <time name="orth">    0.07    0.07</time>
   <time name="total">    1.63    1.65</time>
   <dipole>
    <v name="dipole">      0.00000000       0.00000000      -0.00040190 </v>
    <i name="Tr[quadrupol]">  -1835.60766103 </i>
    <i name="Echarged">      0.00000000 </i>
    <i name="Edipol_quadrupol">      0.00000000 </i>
    <i name="Eion">      0.00000000 </i>
   </dipole>
   <energy>
    <i name="e_fr_energy">    311.96918983 </i>
    <i name="e_wo_entrp">    311.96918983 </i>
    <i name="e_0_energy">    311.96918983 </i>
   </energy>
  </scstep>
  <scstep>
   <time name="diag">    0.49    0.52</time>
   <time name="diis">    1.06    1.06</time>
   <time name="orth">    0.07    0.07</time>
   <time name="total">    1.63    1.65</time>
   <dipole>
    <v name="dipole">      0.00000000       0.00000000      -0.00040190 </v>
    <i name="Tr[quadrupol]">  -1835.60766103 </i>
    <i name="Echarged">      0.00000000 </i>
    <i name="Edipol_quadrupol">      0.00000000 </i>
    <i name="Eion">      0.00000000 </i>
   </dipole>
   <energy>
    <i name="e_fr_energy">    137.51048976 </i>
    <i name="e_wo_entrp">    137.51048976 </i>
    <i name="e_0_energy">    137.51048976 </i>
   </energy>
  </scstep>
  <scstep>
   <time name="diag">    0.49    0.51</time>
   <time name="diis">    1.05    1.05</time>
   <time name="orth">    0.07    0.07</time>
   <time name="total">    1.61    1.64</time>
   <dipole>
    <v name="dipole">      0.00000000       0.00000000      -0.00040190 </v>
    <i name="Tr[quadrupol]">  -1835.60766103 </i>
    <i name="Echarged">      0.00000000 </i>
    <i name="Edipol_quadrupol">      0.00000000 </i>
    <i name="Eion">      0.00000000 </i>
   </dipole>
   <energy>
    <i name="e_fr_energy">     20.36776709 </i>
    <i name="e_wo_entrp">     20.36776709 </i>
    <i name="e_0_energy">     20.36776709 </i>
   </energy>
  </scstep>
  <scstep>
   <time name="diag">    0.50    0.51</time>
   <time name="diis">    1.05    1.05</time>
   <time name="orth">    0.07    0.07</time>
   <time name="total">    1.62    1.64</time>
   <dipole>
    <v name="dipole">      0.00000000       0.00000000      -0.00040190 </v>
    <i name="Tr[quadrupol]">  -1835.60766103 </i>
    <i name="Echarged">      0.00000000 </i>
    <i name="Edipol_quadrupol">      0.00000000 </i>
    <i name="Eion">      0.00000000 </i>
   </dipole>
   <energy>
    <i name="e_fr_energy">    -44.14365215 </i>
    <i name="e_wo_entrp">    -44.14365215 </i>
    <i name="e_0_energy">    -44.14365215 </i>
   </energy>
  </scstep>
  <scstep>
   <time name="diag">    0.48    0.51</time>
   <time name="diis">    1.05    1.05</time>
   <time name="orth">    0.07    0.07</time>
   <time name="total">    1.61    1.63</time>
   <dipole>
    <v name="dipole">      0.00000000       0.00000000      -0.00040190 </v>
    <i name="Tr[quadrupol]">  -1835.60766103 </i>
    <i name="Echarged">      0.00000000 </i>
    <i name="Edipol_quadrupol">      0.00000000 </i>
    <i name="Eion">      0.00000000 </i>
   </dipole>
   <energy>
    <i name="e_fr_energy">    -69.50980917 </i>
    <i name="e_wo_entrp">    -69.50980917 </i>
    <i name="e_0_energy">    -69.50980917 </i>
   </energy>
  </scstep>
  <scstep>
   <time name="diag">    0.49    0.51</time>
   <time name="diis">    1.05    1.05</time>
   <time name="orth">    0.07    0.07</time>
   <time name="total">    1.61    1.64</time>
   <dipole>
    <v name="dipole">      0.00000000       0.00000000      -0.00040190 </v>
    <i name="Tr[quadrupol]">  -1835.60766103 </i>
    <i name="Echarged">      0.00000000 </i>
    <i name="Edipol_quadrupol">      0.00000000 </i>
    <i name="Eion">      0.00000000 </i>
   </dipole>
   <energy>
    <i name="e_fr_energy">    -75.77079877 </i>
    <i name="e_wo_entrp">    -75.77079877 </i>
    <i name="e_0_energy">    -75.77079877 </i>
   </energy>
  </scstep>
  <scstep>
   <time name="diag">    0.49    0.51</time>
   <time name="diis">    2.74    2.74</time>
   <time name="orth">    0.07    0.07</time>
   <time name="total">    3.31    3.33</time>
   <dipole>
    <v name="dipole">      0.00000000       0.00000000      -0.00040190 </v>
    <i name="Tr[quadrupol]">  -1835.60766103 </i>
    <i name="Echarged">      0.00000000 </i>
    <i name="Edipol_quadrupol">      0.00000000 </i>
    <i name="Eion">      0.00000000 </i>
   </dipole>
   <energy>
    <i name="e_fr_energy">    -77.90329572 </i>
    <i name="e_wo_entrp">    -77.90329572 </i>
    <i name="e_0_energy">    -77.90329572 </i>
   </energy>
  </scstep>
  <scstep>
   <time name="diag">    0.50    0.52</time>
   <time name="diis">    3.21    3.21</time>
   <time name="orth">    0.07    0.07</time>
   <time name="total">    3.79    3.81</time>
   <dipole>
    <v name="dipole">      0.00000000       0.00000000      -0.00040190 </v>
    <i name="Tr[quadrupol]">  -1835.60766103 </i>
    <i name="Echarged">      0.00000000 </i>
    <i name="Edipol_quadrupol">      0.00000000 </i>
    <i name="Eion">      0.00000000 </i>
   </dipole>
   <energy>
    <i name="e_fr_energy">    -78.19915624 </i>
    <i name="e_wo_entrp">    -78.19915624 </i>
    <i name="e_0_energy">    -78.19915624 </i>
   </energy>
  </scstep>
  <scstep>
   <time name="diag">    0.49    0.51</time>
   <time name="diis">    3.20    3.20</time>
   <time name="orth">    0.07    0.07</time>
   <time name="total">    3.77    3.79</time>
   <dipole>
    <v name="dipole">      0.00000000       0.00000000      -0.00040190 </v>
    <i name="Tr[quadrupol]">  -1835.60766103 </i>
    <i name="Echarged">      0.00000000 </i>
    <i name="Edipol_quadrupol">      0.00000000 </i>
    <i name="Eion">      0.00000000 </i>
   </dipole>
   <energy>
    <i name="e_fr_energy">    -78.20061970 </i>
    <i name="e_wo_entrp">    -78.20061970 </i>
    <i name="e_0_energy">    -78.20061970 </i>
   </energy>
  </scstep>
  <scstep>
   <time name="diag">    0.50    0.53</time>
   <time name="diis">    3.31    3.31</time>
   <time name="orth">    0.07    0.07</time>
   <time name="total">    4.01    4.04</time>
   <dipole>
    <v name="dipole">      0.00000000       0.00000000      -0.00040190 </v>
    <i name="Tr[quadrupol]">  -1835.60766103 </i>
    <i name="Echarged">      0.00000000 </i>
    <i name="Edipol_quadrupol">      0.00000000 </i>
    <i name="Eion">      0.00000000 </i>
   </dipole>
   <energy>
    <i name="e_fr_energy">    -78.20329278 </i>
    <i name="e_wo_entrp">    -78.20329278 </i>
    <i name="e_0_energy">    -78.20329278 </i>
   </energy>
  </scstep>
  <scstep>
   <time name="diag">    0.48    0.48</time>
   <time name="diis">    2.60    2.60</time>
   <time name="orth">    0.07    0.07</time>
   <time name="total">    8.35    8.38</time>
   <dipole>
    <v name="dipole">      0.00000000       0.00000000       0.26826799 </v>
    <i name="Tr[quadrupol]">  -1847.20339640 </i>
    <i name="Echarged">      0.00000000 </i>
    <i name="Edipol_quadrupol">      0.00000000 </i>
    <i name="Eion">      0.00000000 </i>
   </dipole>
   <energy>
    <i name="e_fr_energy">    -68.44894088 </i>
    <i name="e_wo_entrp">    -68.44894088 </i>
    <i name="e_0_energy">    -68.44894088 </i>
   </energy>
  </scstep>
  <scstep>
   <time name="diag">    0.48    0.48</time>
   <time name="diis">    2.86    2.86</time>
   <time name="orth">    0.07    0.07</time>
   <time name="total">    8.61    8.64</time>
   <dipole>
    <v name="dipole">      0.00000000       0.00000000      -1.38103511 </v>
    <i name="Tr[quadrupol]">  -1837.54206883 </i>
    <i name="Echarged">      0.00000000 </i>
    <i name="Edipol_quadrupol">      0.00000000 </i>
    <i name="Eion">      0.00000000 </i>
   </dipole>
   <energy>
    <i name="e_fr_energy">    -78.41662500 </i>
    <i name="e_wo_entrp">    -78.41662500 </i>
    <i name="e_0_energy">    -78.41662500 </i>
   </energy>
  </scstep>
  <scstep>
   <time name="diag">    0.48    0.48</time>
   <time name="diis">    2.68    2.68</time>
   <time name="orth">    0.07    0.07</time>
   <time name="total">    8.42    8.45</time>
   <dipole>
    <v name="dipole">      0.00000000       0.00000000       0.10094081 </v>
    <i name="Tr[quadrupol]">  -1846.69906686 </i>
    <i name="Echarged">      0.00000000 </i>
    <i name="Edipol_quadrupol">      0.00000000 </i>
    <i name="Eion">      0.00000000 </i>
   </dipole>
   <energy>
    <i name="e_fr_energy">    -68.27419215 </i>
    <i name="e_wo_entrp">    -68.27419215 </i>
    <i name="e_0_energy">    -68.27419215 </i>
   </energy>
  </scstep>
  <scstep>
   <time name="diag">    0.47    0.47</time>
   <time name="diis">    2.79    2.79</time>
   <time name="orth">    0.07    0.07</time>
   <time name="total">    8.52    8.54</time>
   <dipole>
    <v name="dipole">      0.00000000       0.00000000      -0.04228508 </v>
    <i name="Tr[quadrupol]">  -1850.98695019 </i>
    <i name="Echarged">      0.00000000 </i>
    <i name="Edipol_quadrupol">      0.00000000 </i>
    <i name="Eion">      0.00000000 </i>
   </dipole>
   <energy>
    <i name="e_fr_energy">    -67.89912182 </i>
    <i name="e_wo_entrp">    -67.89912182 </i>
    <i name="e_0_energy">    -67.89912182 </i>
   </energy>
  </scstep>
  <scstep>
   <time name="diag">    0.48    0.48</time>
   <time name="diis">    2.35    2.35</time>
   <time name="orth">    0.07    0.07</time>
   <time name="total">    8.10    8.13</time>
   <dipole>
    <v name="dipole">      0.00000000       0.00000000      -0.35707744 </v>
    <i name="Tr[quadrupol]">  -1849.69312905 </i>
    <i name="Echarged">      0.00000000 </i>
    <i name="Edipol_quadrupol">      0.00000000 </i>
    <i name="Eion">      0.00000000 </i>
   </dipole>
   <energy>
    <i name="e_fr_energy">    -67.72585911 </i>
    <i name="e_wo_entrp">    -67.72585911 </i>
    <i name="e_0_energy">    -67.72585911 </i>
   </energy>
  </scstep>
  <scstep>
   <time name="diag">    0.48    0.48</time>
   <time name="diis">    2.94    2.94</time>
   <time name="orth">    0.07    0.07</time>
   <time name="total">    8.93    8.96</time>
   <dipole>
    <v name="dipole">      0.00000000       0.00000000      -0.40266325 </v>
    <i name="Tr[quadrupol]">  -1850.31313951 </i>
    <i name="Echarged">      0.00000000 </i>
    <i name="Edipol_quadrupol">      0.00000000 </i>
    <i name="Eion">      0.00000000 </i>
   </dipole>
   <energy>
    <i name="e_fr_energy">    -67.70554372 </i>
    <i name="e_wo_entrp">    -67.70554372 </i>
    <i name="e_0_energy">    -67.70554372 </i>
   </energy>
  </scstep>
  <scstep>
   <time name="diag">    0.48    0.48</time>
   <time name="diis">    2.47    2.47</time>
   <time name="orth">    0.07    0.07</time>
   <time name="total">    8.32    8.35</time>
   <dipole>
    <v name="dipole">      0.00000000       0.00000000      -0.41733923 </v>
    <i name="Tr[quadrupol]">  -1851.26184669 </i>
    <i name="Echarged">      0.00000000 </i>
    <i name="Edipol_quadrupol">      0.00000000 </i>
    <i name="Eion">      0.00000000 </i>
   </dipole>
   <energy>
    <i name="e_fr_energy">    -67.70594174 </i>
    <i name="e_wo_entrp">    -67.70594174 </i>
    <i name="e_0_energy">    -67.70594174 </i>
   </energy>
  </scstep>
  <scstep>
   <time name="diag">    0.48    0.48</time>
   <time name="diis">    2.70    2.70</time>
   <time name="orth">    0.07    0.07</time>
   <time name="total">    8.46    8.48</time>
   <dipole>
    <v name="dipole">      0.00000000       0.00000000      -0.43789170 </v>
    <i name="Tr[quadrupol]">  -1851.80688048 </i>
    <i name="Echarged">      0.00000000 </i>
    <i name="Edipol_quadrupol">      0.00000000 </i>
    <i name="Eion">      0.00000000 </i>
   </dipole>
   <energy>
    <i name="e_fr_energy">    -67.70669202 </i>
    <i name="e_wo_entrp">    -67.70669202 </i>
    <i name="e_0_energy">    -67.70669202 </i>
   </energy>
  </scstep>
  <scstep>
   <time name="diag">    0.48    0.48</time>
   <time name="diis">    2.81    2.81</time>
   <time name="orth">    0.07    0.07</time>
   <time name="total">    8.56    8.59</time>
   <dipole>
    <v name="dipole">      0.00000000       0.00000000      -0.43704614 </v>
    <i name="Tr[quadrupol]">  -1852.11916136 </i>
    <i name="Echarged">      0.00000000 </i>
    <i name="Edipol_quadrupol">      0.00000000 </i>
    <i name="Eion">      0.00000000 </i>
   </dipole>
   <energy>
    <i name="e_fr_energy">    -67.70504330 </i>
    <i name="e_wo_entrp">    -67.70504330 </i>
    <i name="e_0_energy">    -67.70504330 </i>
   </energy>
  </scstep>
  <scstep>
   <time name="diag">    0.48    0.48</time>
   <time name="diis">    2.48    2.48</time>
   <time name="orth">    0.07    0.07</time>
   <time name="total">    8.22    8.25</time>
   <dipole>
    <v name="dipole">      0.00000000       0.00000000      -0.43117506 </v>
    <i name="Tr[quadrupol]">  -1852.50063416 </i>
    <i name="Echarged">      0.00000000 </i>
    <i name="Edipol_quadrupol">      0.00000000 </i>
    <i name="Eion">      0.00000000 </i>
   </dipole>
   <energy>
    <i name="e_fr_energy">    -67.69905888 </i>
    <i name="e_wo_entrp">    -67.69905888 </i>
    <i name="e_0_energy">    -67.69905888 </i>
   </energy>
  </scstep>
  <scstep>
   <time name="diag">    0.48    0.48</time>
   <time name="diis">    2.33    2.33</time>
   <time name="orth">    0.07    0.07</time>
   <time name="total">    8.10    8.12</time>
   <dipole>
    <v name="dipole">      0.00000000       0.00000000      -0.42490580 </v>
    <i name="Tr[quadrupol]">  -1852.69609745 </i>
    <i name="Echarged">      0.00000000 </i>
    <i name="Edipol_quadrupol">      0.00000000 </i>
    <i name="Eion">      0.00000000 </i>
   </dipole>
   <energy>
    <i name="e_fr_energy">    -67.69607144 </i>
    <i name="e_wo_entrp">    -67.69607144 </i>
    <i name="e_0_energy">    -67.69607144 </i>
   </energy>
  </scstep>
  <scstep>
   <time name="diag">    0.48    0.48</time>
   <time name="diis">    2.15    2.15</time>
   <time name="orth">    0.07    0.07</time>
   <time name="total">    7.97    8.00</time>
   <dipole>
    <v name="dipole">      0.00000000       0.00000000      -0.41454669 </v>
    <i name="Tr[quadrupol]">  -1852.89023339 </i>
    <i name="Echarged">      0.00000000 </i>
    <i name="Edipol_quadrupol">      0.00000000 </i>
    <i name="Eion">      0.00000000 </i>
   </dipole>
   <energy>
    <i name="e_fr_energy">    -67.69683070 </i>
    <i name="e_wo_entrp">    -67.69683070 </i>
    <i name="e_0_energy">    -67.69683070 </i>
   </energy>
  </scstep>
  <scstep>
   <time name="diag">    0.48    0.48</time>
   <time name="diis">    2.10    2.10</time>
   <time name="orth">    0.07    0.07</time>
   <time name="total">    7.88    7.91</time>
   <dipole>
    <v name="dipole">      0.00000000       0.00000000      -0.40740571 </v>
    <i name="Tr[quadrupol]">  -1852.99137514 </i>
    <i name="Echarged">      0.00000000 </i>
    <i name="Edipol_quadrupol">      0.00000000 </i>
    <i name="Eion">      0.00000000 </i>
   </dipole>
   <energy>
    <i name="e_fr_energy">    -67.69731460 </i>
    <i name="e_wo_entrp">    -67.69731460 </i>
    <i name="e_0_energy">    -67.69731460 </i>
   </energy>
  </scstep>
  <scstep>
   <time name="diag">    0.47    0.48</time>
   <time name="diis">    1.91    1.91</time>
   <time name="orth">    0.07    0.07</time>
   <time name="total">    7.65    7.68</time>
   <dipole>
    <v name="dipole">      0.00000000       0.00000000      -0.40367401 </v>
    <i name="Tr[quadrupol]">  -1853.05149601 </i>
    <i name="Echarged">      0.00000000 </i>
    <i name="Edipol_quadrupol">      0.00000000 </i>
    <i name="Eion">      0.00000000 </i>
   </dipole>
   <energy>
    <i name="e_fr_energy">    -67.69712800 </i>
    <i name="e_wo_entrp">    -67.69712800 </i>
    <i name="e_0_energy">    -67.69712800 </i>
   </energy>
  </scstep>
  <scstep>
   <time name="diag">    0.48    0.48</time>
   <time name="diis">    1.96    1.96</time>
   <time name="orth">    0.07    0.07</time>
   <time name="total">    7.72    7.75</time>
   <dipole>
    <v name="dipole">      0.00000000       0.00000000      -0.40047056 </v>
    <i name="Tr[quadrupol]">  -1853.10520322 </i>
    <i name="Echarged">      0.00000000 </i>
    <i name="Edipol_quadrupol">      0.00000000 </i>
    <i name="Eion">      0.00000000 </i>
   </dipole>
   <energy>
    <i name="e_fr_energy">    -67.69703712 </i>
    <i name="e_wo_entrp">    -67.69703712 </i>
    <i name="e_0_energy">    -67.69703712 </i>
   </energy>
  </scstep>
  <scstep>
   <time name="diag">    0.48    0.48</time>
   <time name="diis">    1.75    1.76</time>
   <time name="orth">    0.07    0.07</time>
   <time name="total">    7.51    7.53</time>
   <dipole>
    <v name="dipole">      0.00000000       0.00000000      -0.39973769 </v>
    <i name="Tr[quadrupol]">  -1853.10256139 </i>
    <i name="Echarged">      0.00000000 </i>
    <i name="Edipol_quadrupol">      0.00000000 </i>
    <i name="Eion">      0.00000000 </i>
   </dipole>
   <energy>
    <i name="e_fr_energy">    -67.69705313 </i>
    <i name="e_wo_entrp">    -67.69705313 </i>
    <i name="e_0_energy">    -67.69705313 </i>
   </energy>
  </scstep>
  <scstep>
   <time name="diag">    0.49    0.49</time>
   <time name="diis">    1.68    1.68</time>
   <time name="orth">    0.07    0.07</time>
   <time name="total">    7.77    7.79</time>
   <dipole>
    <v name="dipole">      0.00000000       0.00000000      -0.39923106 </v>
    <i name="Tr[quadrupol]">  -1853.04725717 </i>
    <i name="Echarged">      0.00000000 </i>
    <i name="Edipol_quadrupol">      0.00000000 </i>
    <i name="Eion">      0.00000000 </i>
   </dipole>
   <energy>
    <i name="e_fr_energy">    -67.69708846 </i>
    <i name="e_wo_entrp">    -67.69708846 </i>
    <i name="e_0_energy">    -67.69708846 </i>
   </energy>
  </scstep>
  <scstep>
   <time name="diag">    0.48    0.48</time>
   <time name="diis">    1.61    1.61</time>
   <time name="orth">    0.07    0.07</time>
   <time name="total">    7.36    7.39</time>
   <dipole>
    <v name="dipole">      0.00000000       0.00000000      -0.39913798 </v>
    <i name="Tr[quadrupol]">  -1853.46160837 </i>
    <i name="Echarged">      0.00000000 </i>
    <i name="Edipol_quadrupol">      0.00000000 </i>
    <i name="Eion">      0.00000000 </i>
   </dipole>
   <energy>
    <i name="e_fr_energy">    -67.69711537 </i>
    <i name="e_wo_entrp">    -67.69711537 </i>
    <i name="e_0_energy">    -67.69711537 </i>
   </energy>
  </scstep>
  <scstep>
   <time name="diag">    0.48    0.48</time>
   <time name="diis">    1.63    1.63</time>
   <time name="orth">    0.07    0.07</time>
   <time name="total">    7.25    7.28</time>
   <dipole>
    <v name="dipole">      0.00000000       0.00000000      -0.39925673 </v>
    <i name="Tr[quadrupol]">  -1853.66935360 </i>
    <i name="Echarged">      0.00000000 </i>
    <i name="Edipol_quadrupol">      0.00000000 </i>
    <i name="Eion">      0.00000000 </i>
   </dipole>
   <energy>
    <i name="alphaZ">     65.23261197 </i>
    <i name="ewald">  12828.47793374 </i>
    <i name="hartreedc"> -16281.94547115 </i>
    <i name="XCdc">  -2035.14623915 </i>
    <i name="pawpsdc">   5990.22749794 </i>
    <i name="pawaedc">  -3576.51308551 </i>
    <i name="eentropy">      0.00000000 </i>
    <i name="bandstr">   -886.01851027 </i>
    <i name="atom">   3827.98814510 </i>
    <i name="e_fr_energy">    -67.69711733 </i>
    <i name="e_wo_entrp">    -67.69711733 </i>
    <i name="e_0_energy">    -67.69711733 </i>
   </energy>
  </scstep>
  <structure>
   <crystal>
    <varray name="basis" >
     <v>       9.55575275       0.00000000       0.00000000 </v>
     <v>      -4.77787638       8.27552464       0.00000000 </v>
     <v>       0.00000000       0.00000000      32.62509537 </v>
    </varray>
    <i name="volume">   2579.95558872 </i>
    <varray name="rec_basis" >
     <v>       0.10464900       0.06041913       0.00000000 </v>
     <v>       0.00000000       0.12083826       0.00000000 </v>
     <v>       0.00000000       0.00000000       0.03065125 </v>
    </varray>
   </crystal>
   <varray name="positions" >
    <v>       0.00000000       0.00000000       0.00000000 </v>
    <v>       0.99839380       0.99934573       0.15781328 </v>
    <v>       0.99532392       0.99793513       0.32817955 </v>
    <v>       0.00000001       0.33333336       0.00000000 </v>
    <v>       0.99937305       0.33257698       0.15732346 </v>
    <v>       0.99692380       0.33211239       0.30972352 </v>
    <v>       0.00000002       0.66666672       0.00000000 </v>
    <v>       0.99833146       0.66446540       0.15712782 </v>
    <v>       0.99789021       0.66848145       0.31239501 </v>
    <v>       0.33333334       0.00000000       0.00000000 </v>
    <v>       0.33323557       0.99939281       0.15703770 </v>
    <v>       0.32656007       0.99796716       0.30800499 </v>
    <v>       0.33333335       0.33333336       0.00000000 </v>
    <v>       0.33238780       0.33259781       0.15731740 </v>
    <v>       0.32710864       0.33408524       0.31423661 </v>
    <v>       0.33333336       0.66666672       0.00000000 </v>
    <v>       0.33222368       0.66568758       0.15793373 </v>
    <v>       0.32479940       0.66515853       0.33049889 </v>
    <v>       0.66666668       0.00000000       0.00000000 </v>
    <v>       0.66579186       0.99852066       0.15721350 </v>
    <v>       0.66216633       0.99521021       0.31299282 </v>
    <v>       0.66666668       0.33333336       0.00000000 </v>
    <v>       0.66562987       0.33264240       0.15803095 </v>
    <v>       0.65955317       0.32305143       0.32401787 </v>
    <v>       0.66666670       0.66666672       0.00000000 </v>
    <v>       0.66624348       0.66580224       0.15780242 </v>
    <v>       0.66144246       0.66368168       0.31166115 </v>
    <v>       0.11111113       0.22222222       0.07982145 </v>
    <v>       0.10956947       0.21720524       0.23569199 </v>
    <v>       0.11111114       0.55555561       0.07982145 </v>
    <v>       0.11339064       0.55763518       0.23561670 </v>
    <v>       0.11111116       0.88888894       0.07982145 </v>
    <v>       0.10664387       0.88633924       0.23349189 </v>
    <v>       0.44444450       0.22222222       0.07982145 </v>
    <v>       0.44554317       0.22514559       0.23536181 </v>
    <v>       0.44444450       0.55555561       0.07982145 </v>
    <v>       0.44063742       0.55498428       0.23547088 </v>
    <v>       0.44444451       0.88888894       0.07982145 </v>
    <v>       0.44279066       0.88410834       0.23514525 </v>
    <v>       0.77777779       0.22222222       0.07982145 </v>
    <v>       0.77309597       0.21983572       0.23472353 </v>
    <v>       0.77777781       0.55555561       0.07982145 </v>
    <v>       0.77469107       0.54993953       0.23631053 </v>
    <v>       0.77777784       0.88888894       0.07982145 </v>
    <v>       0.77966512       0.88899603       0.23627203 </v>
    <v>       0.97061938       0.98624579       0.39590463 </v>
    <v>       0.26214474       0.96407468       0.41165624 </v>
    <v>       0.89313714       0.24066886       0.41035587 </v>
    <v>       0.65081677       0.33213733       0.38982655 </v>
    <v>       0.65009337       0.62129768       0.40194764 </v>
    <v>       0.29190332       0.68705445       0.39642871 </v>
    <v>       0.95408408       0.07258670       0.40760855 </v>
    <v>       0.06278434       0.98893039       0.41031580 </v>
    <v>       0.36578826       0.06498858       0.41453329 </v>
    <v>       0.24180005       0.95856240       0.38135359 </v>
    <v>       0.99478135       0.34431189       0.40866287 </v>
    <v>       0.86479229       0.21177932       0.38070236 </v>
    <v>       0.66520847       0.43815931       0.39863486 </v>
    <v>       0.73124842       0.31387826       0.40419478 </v>
    <v>       0.73244928       0.73614401       0.39970167 </v>
    <v>       0.55725921       0.60647627       0.38520549 </v>
    <v>       0.28626555       0.78364127       0.40557171 </v>
    <v>       0.35631340       0.66920628       0.41679644 </v>
   </varray>
  </structure>
  <varray name="forces" >
   <v>       0.02039071      -0.02400560       0.00705201 </v>
   <v>      -0.00689545      -0.02283570      -0.00973979 </v>
   <v>       0.01267454      -0.02678873      -0.00291027 </v>
   <v>      -0.02097056      -0.01441298      -0.01755385 </v>
   <v>      -0.00766713      -0.00048543      -0.00607161 </v>
   <v>      -0.02522501      -0.01087672       0.00829221 </v>
   <v>       0.00360627       0.04113076      -0.02778893 </v>
   <v>      -0.01661515       0.00859283      -0.00156442 </v>
   <v>      -0.00411981       0.03663206       0.01695669 </v>
   <v>      -0.02786905      -0.01451820      -0.02762611 </v>
   <v>       0.00109501      -0.00395437       0.00089058 </v>
   <v>      -0.03357810      -0.00517175       0.01199816 </v>
   <v>       0.00141028       0.02101258      -0.01716360 </v>
   <v>       0.01136759       0.00805147      -0.00987175 </v>
   <v>       0.00557491       0.03304169       0.01402689 </v>
   <v>       0.01203939      -0.00946437      -0.00397214 </v>
   <v>      -0.00006300       0.00969202      -0.00019142 </v>
   <v>       0.03116696      -0.01422956       0.00229716 </v>
   <v>      -0.00121457       0.02151511      -0.02386750 </v>
   <v>      -0.00491826      -0.00669763      -0.00063021 </v>
   <v>       0.00424427       0.03218461       0.00457851 </v>
   <v>       0.00860288      -0.02282594      -0.00460408 </v>
   <v>      -0.01431038       0.00818284       0.00466311 </v>
   <v>       0.00651596      -0.00410028       0.00364987 </v>
   <v>      -0.02689314       0.00280085      -0.03242367 </v>
   <v>       0.00526938       0.00861551      -0.00780803 </v>
   <v>      -0.05590776       0.00758201      -0.06898033 </v>
   <v>       0.00776766      -0.03815900       0.00343221 </v>
   <v>       0.00677653      -0.02471727       0.00525336 </v>
   <v>       0.02387522       0.00445035       0.00754276 </v>
   <v>       0.00862039       0.01688624       0.00238763 </v>
   <v>      -0.05742860      -0.00122697      -0.04427488 </v>
   <v>      -0.02858284      -0.00304160       0.01321613 </v>
   <v>       0.02541161       0.04028260       0.00887041 </v>
   <v>       0.03229844       0.03681894       0.00381934 </v>
   <v>      -0.02083492      -0.00242610      -0.01836208 </v>
   <v>      -0.00444016      -0.00266562      -0.01911437 </v>
   <v>       0.01475182      -0.03991098       0.01111126 </v>
   <v>       0.00697811      -0.02227915      -0.00039836 </v>
   <v>      -0.02278671       0.01733672      -0.03392884 </v>
   <v>      -0.02673622       0.02171153       0.01068343 </v>
   <v>       0.00932244      -0.03082105       0.02632723 </v>
   <v>       0.00719205      -0.02912230      -0.03130409 </v>
   <v>       0.05483677       0.00946816       0.01254356 </v>
   <v>       0.02694712       0.00606263      -0.02119097 </v>
   <v>      -0.00600589       0.00120049       0.00661850 </v>
   <v>      -0.00085787      -0.00443407       0.03449522 </v>
   <v>       0.00954952      -0.00573637       0.03231831 </v>
   <v>      -0.00671106       0.01976445       0.00735409 </v>
   <v>      -0.01343434      -0.03882852       0.29434434 </v>
   <v>       0.00648751       0.00040010       0.01094404 </v>
   <v>      -0.00820063      -0.01269218      -0.00288865 </v>
   <v>      -0.00183193      -0.01139389      -0.00698830 </v>
   <v>      -0.00967234      -0.00570644       0.00673774 </v>
   <v>      -0.00719706      -0.01030124      -0.02616430 </v>
   <v>       0.00366288      -0.00646299       0.00297151 </v>
   <v>      -0.01427801      -0.00705581      -0.02551488 </v>
   <v>      -0.01681339       0.02686068       0.00773743 </v>
   <v>      -0.00819025       0.01845027      -0.00174090 </v>
   <v>       0.05844193      -0.00721310      -0.00065490 </v>
   <v>       0.03455336       0.01928667      -0.06633366 </v>
   <v>      -0.00071235      -0.01159251      -0.00374785 </v>
   <v>       0.03953044       0.01814024      -0.01773893 </v>
  </varray>
  <varray name="stress" >
   <v>      -4.64370810      -1.09757582       0.23327413 </v>
   <v>      -1.09757578      -5.68466093       0.11412126 </v>
   <v>       0.23327384       0.11412092       1.42993907 </v>
  </varray>
  <energy>
   <i name="e_fr_energy">    -67.69711733 </i>
   <i name="e_wo_entrp">    -67.69711733 </i>
   <i name="e_0_energy">      0.00000000 </i>
  </energy>
  <time name="totalsc">  208.14  209.82</time>
  <eigenvalues>
   <array>
    <dimension dim="1">band</dimension>
    <dimension dim="2">kpoint</dimension>
    <dimension dim="3">spin</dimension>
    <field>eigene</field>
    <field>occ</field>
    <set>
     <set comment="spin 1">
      <set comment="kpoint 1">
       <r>  -23.9137    1.0000 </r>
       <r>  -23.7985    1.0000 </r>
       <r>  -23.6123    1.0000 </r>
       <r>  -23.4891    1.0000 </r>
       <r>  -23.4076    1.0000 </r>
       <r>  -23.2118    1.0000 </r>
       <r>  -11.9315    1.0000 </r>
       <r>  -11.8451    1.0000 </r>
       <r>  -11.7068    1.0000 </r>
       <r>  -11.2654    1.0000 </r>
       <r>  -11.1487    1.0000 </r>
       <r>  -11.0364    1.0000 </r>
       <r>   -8.8519    1.0000 </r>
       <r>   -8.6631    1.0000 </r>
       <r>   -8.5301    1.0000 </r>
       <r>   -8.0349    1.0000 </r>
       <r>   -7.9580    1.0000 </r>
       <r>   -7.5773    1.0000 </r>
       <r>   -7.4345    1.0000 </r>
       <r>   -6.8441    1.0000 </r>
       <r>   -6.5642    1.0000 </r>
       <r>   -6.4183    1.0000 </r>
       <r>   -6.3543    1.0000 </r>
       <r>   -5.9833    1.0000 </r>
       <r>   -5.9303    1.0000 </r>
       <r>   -5.8777    1.0000 </r>
       <r>   -5.7221    1.0000 </r>
       <r>   -5.2843    1.0000 </r>
       <r>   -5.2796    1.0000 </r>
       <r>   -5.2754    1.0000 </r>
       <r>   -5.2647    1.0000 </r>
       <r>   -5.2409    1.0000 </r>
       <r>   -5.2383    1.0000 </r>
       <r>   -4.7314    1.0000 </r>
       <r>   -4.7190    1.0000 </r>
       <r>   -4.7136    1.0000 </r>
       <r>   -4.7064    1.0000 </r>
       <r>   -4.6957    1.0000 </r>
       <r>   -4.6015    1.0000 </r>
       <r>   -4.5884    1.0000 </r>
       <r>   -3.8453    1.0000 </r>
       <r>   -3.8370    1.0000 </r>
       <r>   -3.8229    1.0000 </r>
       <r>   -3.8095    1.0000 </r>
       <r>   -3.7026    1.0000 </r>
       <r>   -3.6991    1.0000 </r>
       <r>   -3.1954    1.0000 </r>
       <r>   -2.7000    1.0000 </r>
       <r>   -2.6887    1.0000 </r>
       <r>   -2.6454    1.0000 </r>
       <r>   -2.6322    1.0000 </r>
       <r>   -2.6010    1.0000 </r>
       <r>   -2.5626    1.0000 </r>
       <r>   -1.7797    1.0000 </r>
       <r>   -1.2815    1.0000 </r>
       <r>   -1.2372    1.0000 </r>
       <r>   -1.1975    1.0000 </r>
       <r>   -1.1543    1.0000 </r>
       <r>   -1.1490    1.0000 </r>
       <r>   -1.1085    1.0000 </r>
       <r>   -1.1040    1.0000 </r>
       <r>   -1.1016    1.0000 </r>
       <r>   -1.0577    1.0000 </r>
       <r>   -1.0526    1.0000 </r>
       <r>   -1.0320    1.0000 </r>
       <r>   -0.9812    1.0000 </r>
       <r>   -0.7664    1.0000 </r>
       <r>   -0.6717    1.0000 </r>
       <r>   -0.5666    0.0000 </r>
       <r>   -0.5482    0.0000 </r>
       <r>   -0.4423    0.0000 </r>
       <r>   -0.4187    0.0000 </r>
       <r>   -0.2001    0.0000 </r>
       <r>   -0.1182    0.0000 </r>
       <r>   -0.0933    0.0000 </r>
       <r>    0.1239    0.0000 </r>
       <r>    0.1463    0.0000 </r>
       <r>    0.2012    0.0000 </r>
       <r>    0.2458    0.0000 </r>
       <r>    0.2787    0.0000 </r>
       <r>    0.2892    0.0000 </r>
       <r>    0.4626    0.0000 </r>
       <r>    0.5323    0.0000 </r>
       <r>    0.7869    0.0000 </r>
       <r>    0.9863    0.0000 </r>
       <r>    0.9920    0.0000 </r>
       <r>    1.0029    0.0000 </r>
       <r>    1.0078    0.0000 </r>
       <r>    1.0231    0.0000 </r>
       <r>    1.0349    0.0000 </r>
       <r>    1.0890    0.0000 </r>
       <r>    1.1887    0.0000 </r>
       <r>    1.2879    0.0000 </r>
       <r>    1.3140    0.0000 </r>
       <r>    1.5603    0.0000 </r>
       <r>    1.5630    0.0000 </r>
       <r>    1.5706    0.0000 </r>
       <r>    1.5743    0.0000 </r>
       <r>    1.5855    0.0000 </r>
       <r>    1.5994    0.0000 </r>
       <r>    1.7196    0.0000 </r>
       <r>    1.7876    0.0000 </r>
      </set>
      <set comment="kpoint 2">
       <r>  -23.9117    1.0000 </r>
       <r>  -23.8002    1.0000 </r>
       <r>  -23.6184    1.0000 </r>
       <r>  -23.4814    1.0000 </r>
       <r>  -23.4077    1.0000 </r>
       <r>  -23.2137    1.0000 </r>
       <r>  -11.9295    1.0000 </r>
       <r>  -11.8445    1.0000 </r>
       <r>  -11.7109    1.0000 </r>
       <r>  -11.2456    1.0000 </r>
       <r>  -11.1723    1.0000 </r>
       <r>  -11.0313    1.0000 </r>
       <r>   -8.8480    1.0000 </r>
       <r>   -8.6552    1.0000 </r>
       <r>   -8.5508    1.0000 </r>
       <r>   -8.0111    1.0000 </r>
       <r>   -7.9604    1.0000 </r>
       <r>   -7.5881    1.0000 </r>
       <r>   -7.1927    1.0000 </r>
       <r>   -6.6280    1.0000 </r>
       <r>   -6.5711    1.0000 </r>
       <r>   -6.4800    1.0000 </r>
       <r>   -6.3967    1.0000 </r>
       <r>   -6.3344    1.0000 </r>
       <r>   -5.9838    1.0000 </r>
       <r>   -5.9185    1.0000 </r>
       <r>   -5.8550    1.0000 </r>
       <r>   -5.7839    1.0000 </r>
       <r>   -5.7380    1.0000 </r>
       <r>   -5.7233    1.0000 </r>
       <r>   -5.6196    1.0000 </r>
       <r>   -5.1819    1.0000 </r>
       <r>   -5.1042    1.0000 </r>
       <r>   -4.9573    1.0000 </r>
       <r>   -4.4882    1.0000 </r>
       <r>   -4.3299    1.0000 </r>
       <r>   -4.3020    1.0000 </r>
       <r>   -4.2961    1.0000 </r>
       <r>   -4.2148    1.0000 </r>
       <r>   -3.7983    1.0000 </r>
       <r>   -3.7709    1.0000 </r>
       <r>   -3.6815    1.0000 </r>
       <r>   -3.6102    1.0000 </r>
       <r>   -3.1301    1.0000 </r>
       <r>   -3.0851    1.0000 </r>
       <r>   -3.0212    1.0000 </r>
       <r>   -2.9592    1.0000 </r>
       <r>   -2.9256    1.0000 </r>
       <r>   -2.9035    1.0000 </r>
       <r>   -2.8973    1.0000 </r>
       <r>   -2.8182    1.0000 </r>
       <r>   -2.3869    1.0000 </r>
       <r>   -2.3112    1.0000 </r>
       <r>   -2.2570    1.0000 </r>
       <r>   -2.1933    1.0000 </r>
       <r>   -1.7772    1.0000 </r>
       <r>   -1.7237    1.0000 </r>
       <r>   -1.6587    1.0000 </r>
       <r>   -1.5811    1.0000 </r>
       <r>   -1.5581    1.0000 </r>
       <r>   -1.5218    1.0000 </r>
       <r>   -1.4923    1.0000 </r>
       <r>   -1.4746    1.0000 </r>
       <r>   -1.2921    1.0000 </r>
       <r>   -0.8843    1.0000 </r>
       <r>   -0.8753    1.0000 </r>
       <r>   -0.8635    1.0000 </r>
       <r>   -0.6586    1.0000 </r>
       <r>   -0.6394    0.5013 </r>
       <r>   -0.6219    0.0632 </r>
       <r>   -0.5770   -0.0355 </r>
       <r>   -0.4779   -0.0208 </r>
       <r>   -0.2672    0.0000 </r>
       <r>   -0.0935    0.0000 </r>
       <r>   -0.0254    0.0000 </r>
       <r>    0.0181    0.0000 </r>
       <r>    0.0421    0.0000 </r>
       <r>    0.1424    0.0000 </r>
       <r>    0.2025    0.0000 </r>
       <r>    0.2752    0.0000 </r>
       <r>    0.4832    0.0000 </r>
       <r>    0.4911    0.0000 </r>
       <r>    0.5691    0.0000 </r>
       <r>    0.5927    0.0000 </r>
       <r>    0.6267    0.0000 </r>
       <r>    0.8261    0.0000 </r>
       <r>    0.8526    0.0000 </r>
       <r>    0.9011    0.0000 </r>
       <r>    1.0248    0.0000 </r>
       <r>    1.0536    0.0000 </r>
       <r>    1.0951    0.0000 </r>
       <r>    1.2582    0.0000 </r>
       <r>    1.3013    0.0000 </r>
       <r>    1.3156    0.0000 </r>
       <r>    1.3987    0.0000 </r>
       <r>    1.4360    0.0000 </r>
       <r>    1.4615    0.0000 </r>
       <r>    1.5523    0.0000 </r>
       <r>    1.5852    0.0000 </r>
       <r>    1.6654    0.0000 </r>
       <r>    1.7052    0.0000 </r>
       <r>    1.8012    0.0000 </r>
      </set>
      <set comment="kpoint 3">
       <r>  -23.9114    1.0000 </r>
       <r>  -23.7985    1.0000 </r>
       <r>  -23.6205    1.0000 </r>
       <r>  -23.4968    1.0000 </r>
       <r>  -23.3860    1.0000 </r>
       <r>  -23.2198    1.0000 </r>
       <r>  -11.9346    1.0000 </r>
       <r>  -11.8385    1.0000 </r>
       <r>  -11.7073    1.0000 </r>
       <r>  -11.2493    1.0000 </r>
       <r>  -11.1860    1.0000 </r>
       <r>  -11.0176    1.0000 </r>
       <r>   -8.8457    1.0000 </r>
       <r>   -8.6667    1.0000 </r>
       <r>   -8.5491    1.0000 </r>
       <r>   -8.0120    1.0000 </r>
       <r>   -7.9440    1.0000 </r>
       <r>   -7.5992    1.0000 </r>
       <r>   -7.1924    1.0000 </r>
       <r>   -6.6263    1.0000 </r>
       <r>   -6.5684    1.0000 </r>
       <r>   -6.4780    1.0000 </r>
       <r>   -6.3917    1.0000 </r>
       <r>   -6.3451    1.0000 </r>
       <r>   -5.9836    1.0000 </r>
       <r>   -5.9069    1.0000 </r>
       <r>   -5.8633    1.0000 </r>
       <r>   -5.7848    1.0000 </r>
       <r>   -5.7376    1.0000 </r>
       <r>   -5.7233    1.0000 </r>
       <r>   -5.6210    1.0000 </r>
       <r>   -5.1819    1.0000 </r>
       <r>   -5.1036    1.0000 </r>
       <r>   -4.9586    1.0000 </r>
       <r>   -4.4887    1.0000 </r>
       <r>   -4.3299    1.0000 </r>
       <r>   -4.3020    1.0000 </r>
       <r>   -4.2971    1.0000 </r>
       <r>   -4.2130    1.0000 </r>
       <r>   -3.7968    1.0000 </r>
       <r>   -3.7722    1.0000 </r>
       <r>   -3.6821    1.0000 </r>
       <r>   -3.6101    1.0000 </r>
       <r>   -3.1367    1.0000 </r>
       <r>   -3.0795    1.0000 </r>
       <r>   -3.0192    1.0000 </r>
       <r>   -2.9543    1.0000 </r>
       <r>   -2.9281    1.0000 </r>
       <r>   -2.9046    1.0000 </r>
       <r>   -2.8971    1.0000 </r>
       <r>   -2.8177    1.0000 </r>
       <r>   -2.3863    1.0000 </r>
       <r>   -2.3127    1.0000 </r>
       <r>   -2.2560    1.0000 </r>
       <r>   -2.1923    1.0000 </r>
       <r>   -1.7859    1.0000 </r>
       <r>   -1.7186    1.0000 </r>
       <r>   -1.6642    1.0000 </r>
       <r>   -1.5784    1.0000 </r>
       <r>   -1.5557    1.0000 </r>
       <r>   -1.5344    1.0000 </r>
       <r>   -1.4846    1.0000 </r>
       <r>   -1.4620    1.0000 </r>
       <r>   -1.2904    1.0000 </r>
       <r>   -0.8866    1.0000 </r>
       <r>   -0.8741    1.0000 </r>
       <r>   -0.8626    1.0000 </r>
       <r>   -0.6696    1.0000 </r>
       <r>   -0.6330    0.4764 </r>
       <r>   -0.6272    0.1139 </r>
       <r>   -0.5857   -0.0289 </r>
       <r>   -0.4776   -0.0208 </r>
       <r>   -0.2778    0.0000 </r>
       <r>   -0.0635    0.0000 </r>
       <r>   -0.0279    0.0000 </r>
       <r>    0.0227    0.0000 </r>
       <r>    0.0471    0.0000 </r>
       <r>    0.1374    0.0000 </r>
       <r>    0.1939    0.0000 </r>
       <r>    0.2884    0.0000 </r>
       <r>    0.4775    0.0000 </r>
       <r>    0.4941    0.0000 </r>
       <r>    0.5692    0.0000 </r>
       <r>    0.5902    0.0000 </r>
       <r>    0.6191    0.0000 </r>
       <r>    0.8253    0.0000 </r>
       <r>    0.8512    0.0000 </r>
       <r>    0.8968    0.0000 </r>
       <r>    1.0312    0.0000 </r>
       <r>    1.0450    0.0000 </r>
       <r>    1.0777    0.0000 </r>
       <r>    1.2772    0.0000 </r>
       <r>    1.3004    0.0000 </r>
       <r>    1.3202    0.0000 </r>
       <r>    1.3835    0.0000 </r>
       <r>    1.4369    0.0000 </r>
       <r>    1.4887    0.0000 </r>
       <r>    1.5452    0.0000 </r>
       <r>    1.6015    0.0000 </r>
       <r>    1.6758    0.0000 </r>
       <r>    1.7715    0.0000 </r>
       <r>    2.0727    0.0000 </r>
      </set>
      <set comment="kpoint 4">
       <r>  -23.9101    1.0000 </r>
       <r>  -23.7983    1.0000 </r>
       <r>  -23.6300    1.0000 </r>
       <r>  -23.4830    1.0000 </r>
       <r>  -23.3910    1.0000 </r>
       <r>  -23.2205    1.0000 </r>
       <r>  -11.9328    1.0000 </r>
       <r>  -11.8390    1.0000 </r>
       <r>  -11.7083    1.0000 </r>
       <r>  -11.2698    1.0000 </r>
       <r>  -11.1493    1.0000 </r>
       <r>  -11.0346    1.0000 </r>
       <r>   -8.8445    1.0000 </r>
       <r>   -8.6700    1.0000 </r>
       <r>   -8.5476    1.0000 </r>
       <r>   -7.9940    1.0000 </r>
       <r>   -7.9561    1.0000 </r>
       <r>   -7.6025    1.0000 </r>
       <r>   -6.7215    1.0000 </r>
       <r>   -6.7145    1.0000 </r>
       <r>   -6.7100    1.0000 </r>
       <r>   -6.5641    1.0000 </r>
       <r>   -6.4319    1.0000 </r>
       <r>   -6.3827    1.0000 </r>
       <r>   -6.0976    1.0000 </r>
       <r>   -6.0911    1.0000 </r>
       <r>   -6.0711    1.0000 </r>
       <r>   -5.9791    1.0000 </r>
       <r>   -5.9064    1.0000 </r>
       <r>   -5.7391    1.0000 </r>
       <r>   -5.2031    1.0000 </r>
       <r>   -5.2000    1.0000 </r>
       <r>   -5.1606    1.0000 </r>
       <r>   -4.5543    1.0000 </r>
       <r>   -4.5502    1.0000 </r>
       <r>   -4.5479    1.0000 </r>
       <r>   -4.0472    1.0000 </r>
       <r>   -4.0373    1.0000 </r>
       <r>   -4.0098    1.0000 </r>
       <r>   -3.9600    1.0000 </r>
       <r>   -3.9537    1.0000 </r>
       <r>   -3.9502    1.0000 </r>
       <r>   -3.1068    1.0000 </r>
       <r>   -3.0983    1.0000 </r>
       <r>   -3.0913    1.0000 </r>
       <r>   -2.5275    1.0000 </r>
       <r>   -2.5105    1.0000 </r>
       <r>   -2.4768    1.0000 </r>
       <r>   -2.4701    1.0000 </r>
       <r>   -2.4654    1.0000 </r>
       <r>   -2.4486    1.0000 </r>
       <r>   -2.4401    1.0000 </r>
       <r>   -2.4363    1.0000 </r>
       <r>   -2.4342    1.0000 </r>
       <r>   -1.9928    1.0000 </r>
       <r>   -1.9856    1.0000 </r>
       <r>   -1.9788    1.0000 </r>
       <r>   -1.9499    1.0000 </r>
       <r>   -1.9401    1.0000 </r>
       <r>   -1.9320    1.0000 </r>
       <r>   -1.8360    1.0000 </r>
       <r>   -1.8313    1.0000 </r>
       <r>   -1.8228    1.0000 </r>
       <r>   -1.3207    1.0000 </r>
       <r>   -1.3192    1.0000 </r>
       <r>   -1.3106    1.0000 </r>
       <r>   -1.1099    1.0000 </r>
       <r>   -1.0906    1.0000 </r>
       <r>   -1.0362    1.4441 </r>
       <r>   -0.6773    1.0525 </r>
       <r>   -0.6715    0.3827 </r>
       <r>   -0.6626    0.0994 </r>
       <r>   -0.5159    0.0000 </r>
       <r>   -0.4918    0.0000 </r>
       <r>   -0.4642    0.0000 </r>
       <r>    0.0951    0.0000 </r>
       <r>    0.1073    0.0000 </r>
       <r>    0.1270    0.0000 </r>
       <r>    0.2130    0.0000 </r>
       <r>    0.2354    0.0000 </r>
       <r>    0.2710    0.0000 </r>
       <r>    0.5309    0.0000 </r>
       <r>    0.6651    0.0000 </r>
       <r>    0.7194    0.0000 </r>
       <r>    0.9216    0.0000 </r>
       <r>    0.9381    0.0000 </r>
       <r>    0.9746    0.0000 </r>
       <r>    1.3264    0.0000 </r>
       <r>    1.4798    0.0000 </r>
       <r>    1.5292    0.0000 </r>
       <r>    1.5547    0.0000 </r>
[...]
       <r>   -22.0026     0.0000    12.0000 </r>
       <r>   -21.9023     0.0000    12.0000 </r>
       <r>   -21.8020     0.0000    12.0000 </r>
       <r>   -21.7018     0.0000    12.0000 </r>
       <r>   -21.6015     0.0000    12.0000 </r>
       <r>   -21.5012     0.0000    12.0000 </r>
       <r>   -21.4009     0.0000    12.0000 </r>
       <r>   -21.3006     0.0000    12.0000 </r>
       <r>   -21.2003     0.0000    12.0000 </r>
       <r>   -21.1001     0.0000    12.0000 </r>
       <r>   -20.9998     0.0000    12.0000 </r>
       <r>   -20.8995     0.0000    12.0000 </r>
       <r>   -20.7992     0.0000    12.0000 </r>
       <r>   -20.6989     0.0000    12.0000 </r>
       <r>   -20.5986     0.0000    12.0000 </r>
       <r>   -20.4984     0.0000    12.0000 </r>
       <r>   -20.3981     0.0000    12.0000 </r>
       <r>   -20.2978     0.0000    12.0000 </r>
       <r>   -20.1975     0.0000    12.0000 </r>
       <r>   -20.0972     0.0000    12.0000 </r>
       <r>   -19.9969     0.0000    12.0000 </r>
       <r>   -19.8967     0.0000    12.0000 </r>
       <r>   -19.7964     0.0000    12.0000 </r>
       <r>   -19.6961     0.0000    12.0000 </r>
       <r>   -19.5958     0.0000    12.0000 </r>
       <r>   -19.4955     0.0000    12.0000 </r>
       <r>   -19.3952     0.0000    12.0000 </r>
       <r>   -19.2950     0.0000    12.0000 </r>
       <r>   -19.1947     0.0000    12.0000 </r>
       <r>   -19.0944     0.0000    12.0000 </r>
       <r>   -18.9941     0.0000    12.0000 </r>
       <r>   -18.8938     0.0000    12.0000 </r>
       <r>   -18.7935     0.0000    12.0000 </r>
       <r>   -18.6933     0.0000    12.0000 </r>
       <r>   -18.5930     0.0000    12.0000 </r>
       <r>   -18.4927     0.0000    12.0000 </r>
       <r>   -18.3924     0.0000    12.0000 </r>
       <r>   -18.2921     0.0000    12.0000 </r>
       <r>   -18.1918     0.0000    12.0000 </r>
       <r>   -18.0916     0.0000    12.0000 </r>
       <r>   -17.9913     0.0000    12.0000 </r>
       <r>   -17.8910     0.0000    12.0000 </r>
       <r>   -17.7907     0.0000    12.0000 </r>
       <r>   -17.6904     0.0000    12.0000 </r>
       <r>   -17.5901     0.0000    12.0000 </r>
       <r>   -17.4899     0.0000    12.0000 </r>
       <r>   -17.3896     0.0000    12.0000 </r>
       <r>   -17.2893     0.0000    12.0000 </r>
       <r>   -17.1890     0.0000    12.0000 </r>
       <r>   -17.0887     0.0000    12.0000 </r>
       <r>   -16.9884     0.0000    12.0000 </r>
       <r>   -16.8882     0.0000    12.0000 </r>
       <r>   -16.7879     0.0000    12.0000 </r>
       <r>   -16.6876     0.0000    12.0000 </r>
       <r>   -16.5873     0.0000    12.0000 </r>
       <r>   -16.4870     0.0000    12.0000 </r>
       <r>   -16.3867     0.0000    12.0000 </r>
       <r>   -16.2865     0.0000    12.0000 </r>
       <r>   -16.1862     0.0000    12.0000 </r>
       <r>   -16.0859     0.0000    12.0000 </r>
       <r>   -15.9856     0.0000    12.0000 </r>
       <r>   -15.8853     0.0000    12.0000 </r>
       <r>   -15.7850     0.0000    12.0000 </r>
       <r>   -15.6848     0.0000    12.0000 </r>
       <r>   -15.5845     0.0000    12.0000 </r>
       <r>   -15.4842     0.0000    12.0000 </r>
       <r>   -15.3839     0.0000    12.0000 </r>
       <r>   -15.2836     0.0000    12.0000 </r>
       <r>   -15.1833     0.0000    12.0000 </r>
       <r>   -15.0831     0.0000    12.0000 </r>
       <r>   -14.9828     0.0000    12.0000 </r>
       <r>   -14.8825     0.0000    12.0000 </r>
       <r>   -14.7822     0.0000    12.0000 </r>
       <r>   -14.6819     0.0000    12.0000 </r>
       <r>   -14.5816     0.0000    12.0000 </r>
       <r>   -14.4814     0.0000    12.0000 </r>
       <r>   -14.3811     0.0000    12.0000 </r>
       <r>   -14.2808     0.0000    12.0000 </r>
       <r>   -14.1805     0.0000    12.0000 </r>
       <r>   -14.0802     0.0000    12.0000 </r>
       <r>   -13.9799     0.0000    12.0000 </r>
       <r>   -13.8797     0.0000    12.0000 </r>
       <r>   -13.7794     0.0000    12.0000 </r>
       <r>   -13.6791     0.0000    12.0000 </r>
       <r>   -13.5788     0.0000    12.0000 </r>
       <r>   -13.4785     0.0000    12.0000 </r>
       <r>   -13.3782     0.0000    12.0000 </r>
       <r>   -13.2780     0.0000    12.0000 </r>
       <r>   -13.1777     0.0000    12.0000 </r>
       <r>   -13.0774     0.0000    12.0000 </r>
       <r>   -12.9771     0.0000    12.0000 </r>
       <r>   -12.8768     0.0000    12.0000 </r>
       <r>   -12.7765     0.0000    12.0000 </r>
       <r>   -12.6763     0.0000    12.0000 </r>
       <r>   -12.5760     0.0000    12.0000 </r>
       <r>   -12.4757     0.0000    12.0000 </r>
       <r>   -12.3754     0.0000    12.0000 </r>
       <r>   -12.2751     0.0000    12.0000 </r>
       <r>   -12.1748     0.0000    12.0000 </r>
       <r>   -12.0746     0.0000    12.0000 </r>
       <r>   -11.9743     0.0000    12.0000 </r>
       <r>   -11.8740     0.0000    14.0000 </r>
       <r>   -11.7737     0.0000    16.0000 </r>
       <r>   -11.6734     0.0000    18.0000 </r>
       <r>   -11.5731     0.0000    18.0000 </r>
       <r>   -11.4729     0.0000    18.0000 </r>
       <r>   -11.3726     0.0000    18.0000 </r>
       <r>   -11.2723     0.0000    18.0000 </r>
       <r>   -11.1720   111.3020    20.7243 </r>
       <r>   -11.0717     0.0000    22.0000 </r>
       <r>   -10.9714     0.0000    24.0000 </r>
       <r>   -10.8712     0.0000    24.0000 </r>
       <r>   -10.7709     0.0000    24.0000 </r>
       <r>   -10.6706     0.0000    24.0000 </r>
       <r>   -10.5703     0.0000    24.0000 </r>
       <r>   -10.4700     0.0000    24.0000 </r>
       <r>   -10.3697     0.0000    24.0000 </r>
       <r>   -10.2695     0.0000    24.0000 </r>
       <r>   -10.1692     0.0000    24.0000 </r>
       <r>   -10.0689     0.0000    24.0000 </r>
       <r>    -9.9686     0.0000    24.0000 </r>
       <r>    -9.8683     0.0000    24.0000 </r>
       <r>    -9.7680     0.0000    24.0000 </r>
       <r>    -9.6678     0.0000    24.0000 </r>
       <r>    -9.5675     0.0000    24.0000 </r>
       <r>    -9.4672     0.0000    24.0000 </r>
       <r>    -9.3669     0.0000    24.0000 </r>
       <r>    -9.2666     0.0000    24.0000 </r>
       <r>    -9.1663     0.0000    24.0000 </r>
       <r>    -9.0661     0.0000    24.0000 </r>
       <r>    -8.9658     0.0000    24.0000 </r>
       <r>    -8.8655     0.0000    24.0000 </r>
       <r>    -8.7652     0.0000    26.0000 </r>
       <r>    -8.6649    91.9405    27.3183 </r>
       <r>    -8.5646     0.0000    28.0000 </r>
       <r>    -8.4644     0.0000    30.0000 </r>
       <r>    -8.3641     0.0000    30.0000 </r>
       <r>    -8.2638     0.0000    30.0000 </r>
       <r>    -8.1635     0.0000    30.0000 </r>
       <r>    -8.0632     0.0000    30.0000 </r>
       <r>    -7.9629     0.0000    32.0000 </r>
       <r>    -7.8627     0.0000    34.0000 </r>
       <r>    -7.7624     0.0000    34.0000 </r>
       <r>    -7.6621     0.0000    34.0000 </r>
       <r>    -7.5618     0.0000    36.0000 </r>
       <r>    -7.4615     0.0000    36.0000 </r>
       <r>    -7.3612     1.6693    36.0612 </r>
       <r>    -7.2610     3.9532    36.3431 </r>
       <r>    -7.1607     5.2775    36.8411 </r>
       <r>    -7.0604     4.0724    37.3100 </r>
       <r>    -6.9601     2.8673    37.6579 </r>
       <r>    -6.8598     1.6622    37.8850 </r>
       <r>    -6.7595     2.9806    38.0981 </r>
       <r>    -6.6593    34.5485    39.2969 </r>
       <r>    -6.5590     1.5897    42.0040 </r>
       <r>    -6.4587    21.5222    43.5345 </r>
       <r>    -6.3584    59.0625    46.6656 </r>
       <r>    -6.2581     2.7939    47.6161 </r>
       <r>    -6.1578     1.7743    47.8452 </r>
       <r>    -6.0576    12.6001    48.1888 </r>
       <r>    -5.9573    32.3844    50.9934 </r>
       <r>    -5.8570    23.6622    54.0062 </r>
       <r>    -5.7567    19.2452    56.4303 </r>
       <r>    -5.6564     6.9132    58.6970 </r>
       <r>    -5.5561    13.6000    59.8882 </r>
       <r>    -5.4559     9.1532    61.0291 </r>
       <r>    -5.3556     4.7065    61.7240 </r>
       <r>    -5.2553     0.8037    61.9790 </r>
       <r>    -5.1550    10.9390    64.2713 </r>
       <r>    -5.0547     0.0000    66.0000 </r>
       <r>    -4.9544    12.3441    66.0435 </r>
       <r>    -4.8542     8.0971    67.0685 </r>
       <r>    -4.7539     3.8501    67.6675 </r>
       <r>    -4.6536     4.5859    68.0080 </r>
       <r>    -4.5533     8.5352    68.6513 </r>
       <r>    -4.4530    13.3348    71.1815 </r>
       <r>    -4.3527    22.5874    72.9827 </r>
       <r>    -4.2525    20.9228    74.8724 </r>
       <r>    -4.1522    18.7816    77.0767 </r>
       <r>    -4.0519     4.5639    78.2472 </r>
       <r>    -3.9516     2.3846    78.4369 </r>
       <r>    -3.8513    24.5089    79.7828 </r>
       <r>    -3.7510    14.3920    83.0182 </r>
       <r>    -3.6508     5.8492    84.4808 </r>
       <r>    -3.5505     6.3766    85.1330 </r>
       <r>    -3.4502     6.2510    85.7661 </r>
       <r>    -3.3499     6.1254    86.3867 </r>
       <r>    -3.2496     5.9998    86.9947 </r>
       <r>    -3.1493     6.9475    87.6148 </r>
       <r>    -3.0491     5.2981    90.8634 </r>
       <r>    -2.9488    10.4855    91.7414 </r>
       <r>    -2.8485    36.6271    94.5933 </r>
       <r>    -2.7482    32.4312    98.4386 </r>
       <r>    -2.6479    15.0322   100.7508 </r>
       <r>    -2.5476     7.6899   101.8132 </r>
       <r>    -2.4474     6.8683   102.4805 </r>
       <r>    -2.3471    27.8027   105.5232 </r>
       <r>    -2.2468     2.7052   107.3682 </r>
       <r>    -2.1465    13.7475   108.2235 </r>
       <r>    -2.0462     6.3270   109.2300 </r>
       <r>    -1.9459     5.8969   109.6356 </r>
       <r>    -1.8457    21.8603   111.0103 </r>
       <r>    -1.7454    32.9141   113.9843 </r>
       <r>    -1.6451    34.5004   117.2910 </r>
       <r>    -1.5448    32.9916   120.9078 </r>
       <r>    -1.4445    16.7140   123.3160 </r>
       <r>    -1.3442    11.3217   124.7217 </r>
       <r>    -1.2440    12.5400   127.2253 </r>
       <r>    -1.1437     8.5633   128.2716 </r>
       <r>    -1.0434    11.3670   129.1612 </r>
       <r>    -0.9431    31.9232   131.1497 </r>
       <r>    -0.8428    17.2679   134.3646 </r>
       <r>    -0.7425    10.0024   135.6080 </r>
       <r>    -0.6423    48.7854   137.9936 </r>
       <r>    -0.5420    17.5363   142.1715 </r>
       <r>    -0.4417    12.7071   144.0353 </r>
       <r>    -0.3414    11.3250   144.9089 </r>
       <r>    -0.2411    19.6284   146.4313 </r>
       <r>    -0.1408    14.4122   147.9271 </r>
       <r>    -0.0406    22.6458   149.7749 </r>
       <r>     0.0597    67.4361   152.2300 </r>
       <r>     0.1600    16.7655   155.6546 </r>
       <r>     0.2603    37.1263   158.6792 </r>
       <r>     0.3606     8.1069   160.3393 </r>
       <r>     0.4609    17.9288   161.6448 </r>
       <r>     0.5611    25.0455   164.3605 </r>
       <r>     0.6614    26.0291   167.8917 </r>
       <r>     0.7617     7.9970   169.3454 </r>
       <r>     0.8620    46.7047   171.0422 </r>
       <r>     0.9623    17.5853   174.7958 </r>
       <r>     1.0626    14.7099   177.0982 </r>
       <r>     1.1628    15.7917   179.3905 </r>
       <r>     1.2631    20.7588   181.4329 </r>
       <r>     1.3634    25.1266   185.0761 </r>
       <r>     1.4637    49.0798   188.6821 </r>
       <r>     1.5640    71.7987   193.8153 </r>
       <r>     1.6643    29.7693   198.3274 </r>
       <r>     1.7645    10.3824   200.8913 </r>
       <r>     1.8648     8.4706   201.7510 </r>
       <r>     1.9651     6.5166   202.5025 </r>
       <r>     2.0654     4.5625   203.0580 </r>
       <r>     2.1657    21.5472   203.8461 </r>
       <r>     2.2660     0.0000   204.0000 </r>
       <r>     2.3662     0.0000   204.0000 </r>
       <r>     2.4665     0.0000   204.0000 </r>
       <r>     2.5668     0.0000   204.0000 </r>
       <r>     2.6671     0.0000   204.0000 </r>
       <r>     2.7674     0.0000   204.0000 </r>
       <r>     2.8677     0.0000   204.0000 </r>
       <r>     2.9679     0.0000   204.0000 </r>
       <r>     3.0682     0.0000   204.0000 </r>
       <r>     3.1685     0.0000   204.0000 </r>
       <r>     3.2688     0.0000   204.0000 </r>
       <r>     3.3691     0.0000   204.0000 </r>
       <r>     3.4694     0.0000   204.0000 </r>
       <r>     3.5696     0.0000   204.0000 </r>
       <r>     3.6699     0.0000   204.0000 </r>
       <r>     3.7702     0.0000   204.0000 </r>
       <r>     3.8705     0.0000   204.0000 </r>
       <r>     3.9708     0.0000   204.0000 </r>
       <r>     4.0711     0.0000   204.0000 </r>
       <r>     4.1713     0.0000   204.0000 </r>
      </set>
     </set>
    </array>
   </total>
  </dos>
 </calculation>
 <structure name="finalpos" >
  <crystal>
   <varray name="basis" >
    <v>       9.55575275       0.00000000       0.00000000 </v>
    <v>      -4.77787638       8.27552464       0.00000000 </v>
    <v>       0.00000000       0.00000000      32.62509537 </v>
   </varray>
   <i name="volume">   2579.95558872 </i>
   <varray name="rec_basis" >
    <v>       0.10464900       0.06041913       0.00000000 </v>
    <v>       0.00000000       0.12083826       0.00000000 </v>
    <v>       0.00000000       0.00000000       0.03065125 </v>
   </varray>
  </crystal>
  <varray name="positions" >
   <v>       0.00000000       0.00000000       0.00000000 </v>
   <v>       0.99839380       0.99934573       0.15781328 </v>
   <v>       0.99532392       0.99793513       0.32817955 </v>
   <v>       0.00000001       0.33333336       0.00000000 </v>
   <v>       0.99937305       0.33257698       0.15732346 </v>
   <v>       0.99692380       0.33211239       0.30972352 </v>
   <v>       0.00000002       0.66666672       0.00000000 </v>
   <v>       0.99833146       0.66446540       0.15712782 </v>
   <v>       0.99789021       0.66848145       0.31239501 </v>
   <v>       0.33333334       0.00000000       0.00000000 </v>
   <v>       0.33323557       0.99939281       0.15703770 </v>
   <v>       0.32656007       0.99796716       0.30800499 </v>
   <v>       0.33333335       0.33333336       0.00000000 </v>
   <v>       0.33238780       0.33259781       0.15731740 </v>
   <v>       0.32710864       0.33408524       0.31423661 </v>
   <v>       0.33333336       0.66666672       0.00000000 </v>
   <v>       0.33222368       0.66568758       0.15793373 </v>
   <v>       0.32479940       0.66515853       0.33049889 </v>
   <v>       0.66666668       0.00000000       0.00000000 </v>
   <v>       0.66579186       0.99852066       0.15721350 </v>
   <v>       0.66216633       0.99521021       0.31299282 </v>
   <v>       0.66666668       0.33333336       0.00000000 </v>
   <v>       0.66562987       0.33264240       0.15803095 </v>
   <v>       0.65955317       0.32305143       0.32401787 </v>
   <v>       0.66666670       0.66666672       0.00000000 </v>
   <v>       0.66624348       0.66580224       0.15780242 </v>
   <v>       0.66144246       0.66368168       0.31166115 </v>
   <v>       0.11111113       0.22222222       0.07982145 </v>
   <v>       0.10956947       0.21720524       0.23569199 </v>
   <v>       0.11111114       0.55555561       0.07982145 </v>
   <v>       0.11339064       0.55763518       0.23561670 </v>
   <v>       0.11111116       0.88888894       0.07982145 </v>
   <v>       0.10664387       0.88633924       0.23349189 </v>
   <v>       0.44444450       0.22222222       0.07982145 </v>
   <v>       0.44554317       0.22514559       0.23536181 </v>
   <v>       0.44444450       0.55555561       0.07982145 </v>
   <v>       0.44063742       0.55498428       0.23547088 </v>
   <v>       0.44444451       0.88888894       0.07982145 </v>
   <v>       0.44279066       0.88410834       0.23514525 </v>
   <v>       0.77777779       0.22222222       0.07982145 </v>
   <v>       0.77309597       0.21983572       0.23472353 </v>
   <v>       0.77777781       0.55555561       0.07982145 </v>
   <v>       0.77469107       0.54993953       0.23631053 </v>
   <v>       0.77777784       0.88888894       0.07982145 </v>
   <v>       0.77966512       0.88899603       0.23627203 </v>
   <v>       0.97061938       0.98624579       0.39590463 </v>
   <v>       0.26214474       0.96407468       0.41165624 </v>
   <v>       0.89313714       0.24066886       0.41035587 </v>
   <v>       0.65081677       0.33213733       0.38982655 </v>
   <v>       0.65009337       0.62129768       0.40194764 </v>
   <v>       0.29190332       0.68705445       0.39642871 </v>
   <v>       0.95408408       0.07258670       0.40760855 </v>
   <v>       0.06278434       0.98893039       0.41031580 </v>
   <v>       0.36578826       0.06498858       0.41453329 </v>
   <v>       0.24180005       0.95856240       0.38135359 </v>
   <v>       0.99478135       0.34431189       0.40866287 </v>
   <v>       0.86479229       0.21177932       0.38070236 </v>
   <v>       0.66520847       0.43815931       0.39863486 </v>
   <v>       0.73124842       0.31387826       0.40419478 </v>
   <v>       0.73244928       0.73614401       0.39970167 </v>
   <v>       0.55725921       0.60647627       0.38520549 </v>
   <v>       0.28626555       0.78364127       0.40557171 </v>
   <v>       0.35631340       0.66920628       0.41679644 </v>
  </varray>
  <varray name="selective"  type="logical" >
   <v type="logical" >  F  F  F </v>
   <v type="logical" >  T  T  T </v>
   <v type="logical" >  T  T  T </v>
   <v type="logical" >  F  F  F </v>
   <v type="logical" >  T  T  T </v>
   <v type="logical" >  T  T  T </v>
   <v type="logical" >  F  F  F </v>
   <v type="logical" >  T  T  T </v>
   <v type="logical" >  T  T  T </v>
   <v type="logical" >  F  F  F </v>
   <v type="logical" >  T  T  T </v>
   <v type="logical" >  T  T  T </v>
   <v type="logical" >  F  F  F </v>
   <v type="logical" >  T  T  T </v>
   <v type="logical" >  T  T  T </v>
   <v type="logical" >  F  F  F </v>
   <v type="logical" >  T  T  T </v>
   <v type="logical" >  T  T  T </v>
   <v type="logical" >  F  F  F </v>
   <v type="logical" >  T  T  T </v>
   <v type="logical" >  T  T  T </v>
   <v type="logical" >  F  F  F </v>
   <v type="logical" >  T  T  T </v>
   <v type="logical" >  T  T  T </v>
   <v type="logical" >  F  F  F </v>
   <v type="logical" >  T  T  T </v>
   <v type="logical" >  T  T  T </v>
   <v type="logical" >  F  F  F </v>
   <v type="logical" >  T  T  T </v>
   <v type="logical" >  F  F  F </v>
   <v type="logical" >  T  T  T </v>
   <v type="logical" >  F  F  F </v>
   <v type="logical" >  T  T  T </v>
   <v type="logical" >  F  F  F </v>
   <v type="logical" >  T  T  T </v>
   <v type="logical" >  F  F  F </v>
   <v type="logical" >  T  T  T </v>
   <v type="logical" >  F  F  F </v>
   <v type="logical" >  T  T  T </v>
   <v type="logical" >  F  F  F </v>
   <v type="logical" >  T  T  T </v>
   <v type="logical" >  F  F  F </v>
   <v type="logical" >  T  T  T </v>
   <v type="logical" >  F  F  F </v>
   <v type="logical" >  T  T  T </v>
   <v type="logical" >  T  T  T </v>
   <v type="logical" >  T  T  T </v>
   <v type="logical" >  T  T  T </v>
   <v type="logical" >  T  T  T </v>
   <v type="logical" >  T  T  T </v>
   <v type="logical" >  T  T  T </v>
   <v type="logical" >  T  T  T </v>
   <v type="logical" >  T  T  T </v>
   <v type="logical" >  T  T  T </v>
   <v type="logical" >  T  T  T </v>
   <v type="logical" >  T  T  T </v>
   <v type="logical" >  T  T  T </v>
   <v type="logical" >  T  T  T </v>
   <v type="logical" >  T  T  T </v>
   <v type="logical" >  T  T  T </v>
   <v type="logical" >  T  T  T </v>
   <v type="logical" >  T  T  T </v>
   <v type="logical" >  T  T  T </v>
  </varray>
  <nose>
   <v>      -3.00000000       0.00000000       0.00010000       0.00010000 </v>
  </nose>
 </structure>
</modeling>
