Mg_slab_in_a_box                        
           1
     9.555753    0.000000    0.000000
    -4.777876    8.275525    0.000000
     0.000000    0.000000   32.625095
   Mg   O    H 
  45   6  12
Direct configuration=     1
   0.00000000  0.00000000  0.00000000
   0.99839380  0.99934573  0.15781328
   0.99532392  0.99793513  0.32817955
   0.00000001  0.33333336  0.00000000
   0.99937305  0.33257698  0.15732346
   0.99692380  0.33211239  0.30972352
   0.00000002  0.66666672  0.00000000
   0.99833146  0.66446540  0.15712782
   0.99789021  0.66848145  0.31239501
   0.33333334  0.00000000  0.00000000
   0.33323557  0.99939281  0.15703770
   0.32656007  0.99796716  0.30800499
   0.33333335  0.33333336  0.00000000
   0.33238780  0.33259781  0.15731740
   0.32710864  0.33408524  0.31423661
   0.33333336  0.66666672  0.00000000
   0.33222368  0.66568758  0.15793373
   0.32479940  0.66515853  0.33049889
   0.66666668  0.00000000  0.00000000
   0.66579186  0.99852066  0.15721350
   0.66216633  0.99521021  0.31299282
   0.66666668  0.33333336  0.00000000
   0.66562987  0.33264240  0.15803095
   0.65955317  0.32305143  0.32401787
   0.66666670  0.66666672  0.00000000
   0.66624348  0.66580224  0.15780242
   0.66144246  0.66368168  0.31166115
   0.11111113  0.22222222  0.07982145
   0.10956947  0.21720524  0.23569199
   0.11111114  0.55555561  0.07982145
   0.11339064  0.55763518  0.23561670
   0.11111116  0.88888894  0.07982145
   0.10664387  0.88633924  0.23349189
   0.44444450  0.22222222  0.07982145
   0.44554317  0.22514559  0.23536181
   0.44444450  0.55555561  0.07982145
   0.44063742  0.55498428  0.23547088
   0.44444451  0.88888894  0.07982145
   0.44279066  0.88410834  0.23514525
   0.77777779  0.22222222  0.07982145
   0.77309597  0.21983572  0.23472353
   0.77777781  0.55555561  0.07982145
   0.77469107  0.54993953  0.23631053
   0.77777784  0.88888894  0.07982145
   0.77966512  0.88899603  0.23627203
   0.97061938  0.98624579  0.39590463
   0.26214474  0.96407468  0.41165624
   0.89313714  0.24066886  0.41035587
   0.65081677  0.33213733  0.38982655
   0.65009337  0.62129768  0.40194764
   0.29190332  0.68705445  0.39642871
   0.95408408  0.07258670  0.40760855
   0.06278434  0.98893039  0.41031580
   0.36578826  0.06498858  0.41453329
   0.24180005  0.95856240  0.38135359
   0.99478135  0.34431189  0.40866287
   0.86479229  0.21177932  0.38070236
   0.66520847  0.43815931  0.39863486
   0.73124842  0.31387826  0.40419478
   0.73244928  0.73614401  0.39970167
   0.55725921  0.60647627  0.38520549
   0.28626555  0.78364127  0.40557171
   0.35631340  0.66920628  0.41679644
