  63  63   0   0
  0.4095168E+02  0.9555753E-09  0.9555753E-09  0.3262510E-08  0.5000000E-15
  1.000000000000000E-004
  CAR 
 Mg_slab_in_a_box                        
      4.11550596    -25.90214052  301     -0.66440192      1.00000000
    -25.902  0.0000E+00  0.0000E+00
    -25.802  0.0000E+00  0.0000E+00
    -25.702  0.0000E+00  0.0000E+00
    -25.602  0.0000E+00  0.0000E+00
    -25.502  0.0000E+00  0.0000E+00
    -25.402  0.0000E+00  0.0000E+00
    -25.302  0.0000E+00  0.0000E+00
    -25.202  0.0000E+00  0.0000E+00
    -25.102  0.0000E+00  0.0000E+00
    -25.002  0.0000E+00  0.0000E+00
    -24.902  0.0000E+00  0.0000E+00
    -24.801  0.0000E+00  0.0000E+00
    -24.701  0.0000E+00  0.0000E+00
    -24.601  0.0000E+00  0.0000E+00
    -24.501  0.0000E+00  0.0000E+00
    -24.401  0.0000E+00  0.0000E+00
    -24.301  0.0000E+00  0.0000E+00
    -24.201  0.0000E+00  0.0000E+00
    -24.101  0.0000E+00  0.0000E+00
    -24.001  0.0000E+00  0.0000E+00
    -23.901  0.3369E+03  0.1982E+00
    -23.801  0.0000E+00  0.2000E+01
    -23.701  0.0000E+00  0.4000E+01
    -23.601  0.1999E+03  0.4267E+01
    -23.501  0.0000E+00  0.6000E+01
    -23.401  0.0000E+00  0.8000E+01
    -23.301  0.0000E+00  0.1000E+02
    -23.201  0.0000E+00  0.1000E+02
    -23.100  0.0000E+00  0.1200E+02
    -23.000  0.0000E+00  0.1200E+02
    -22.900  0.0000E+00  0.1200E+02
    -22.800  0.0000E+00  0.1200E+02
    -22.700  0.0000E+00  0.1200E+02
    -22.600  0.0000E+00  0.1200E+02
    -22.500  0.0000E+00  0.1200E+02
    -22.400  0.0000E+00  0.1200E+02
    -22.300  0.0000E+00  0.1200E+02
    -22.200  0.0000E+00  0.1200E+02
    -22.100  0.0000E+00  0.1200E+02
    -22.000  0.0000E+00  0.1200E+02
    -21.900  0.0000E+00  0.1200E+02
    -21.800  0.0000E+00  0.1200E+02
    -21.700  0.0000E+00  0.1200E+02
    -21.600  0.0000E+00  0.1200E+02
    -21.500  0.0000E+00  0.1200E+02
    -21.399  0.0000E+00  0.1200E+02
    -21.299  0.0000E+00  0.1200E+02
    -21.199  0.0000E+00  0.1200E+02
    -21.099  0.0000E+00  0.1200E+02
    -20.999  0.0000E+00  0.1200E+02
    -20.899  0.0000E+00  0.1200E+02
    -20.799  0.0000E+00  0.1200E+02
    -20.699  0.0000E+00  0.1200E+02
    -20.599  0.0000E+00  0.1200E+02
    -20.499  0.0000E+00  0.1200E+02
    -20.399  0.0000E+00  0.1200E+02
    -20.299  0.0000E+00  0.1200E+02
    -20.199  0.0000E+00  0.1200E+02
    -20.099  0.0000E+00  0.1200E+02
    -19.999  0.0000E+00  0.1200E+02
    -19.899  0.0000E+00  0.1200E+02
    -19.799  0.0000E+00  0.1200E+02
    -19.698  0.0000E+00  0.1200E+02
    -19.598  0.0000E+00  0.1200E+02
    -19.498  0.0000E+00  0.1200E+02
    -19.398  0.0000E+00  0.1200E+02
    -19.298  0.0000E+00  0.1200E+02
    -19.198  0.0000E+00  0.1200E+02
    -19.098  0.0000E+00  0.1200E+02
    -18.998  0.0000E+00  0.1200E+02
    -18.898  0.0000E+00  0.1200E+02
    -18.798  0.0000E+00  0.1200E+02
    -18.698  0.0000E+00  0.1200E+02
    -18.598  0.0000E+00  0.1200E+02
    -18.498  0.0000E+00  0.1200E+02
    -18.398  0.0000E+00  0.1200E+02
    -18.298  0.0000E+00  0.1200E+02
    -18.198  0.0000E+00  0.1200E+02
    -18.098  0.0000E+00  0.1200E+02
    -17.997  0.0000E+00  0.1200E+02
    -17.897  0.0000E+00  0.1200E+02
    -17.797  0.0000E+00  0.1200E+02
    -17.697  0.0000E+00  0.1200E+02
    -17.597  0.0000E+00  0.1200E+02
    -17.497  0.0000E+00  0.1200E+02
    -17.397  0.0000E+00  0.1200E+02
    -17.297  0.0000E+00  0.1200E+02
    -17.197  0.0000E+00  0.1200E+02
    -17.097  0.0000E+00  0.1200E+02
    -16.997  0.0000E+00  0.1200E+02
    -16.897  0.0000E+00  0.1200E+02
    -16.797  0.0000E+00  0.1200E+02
    -16.697  0.0000E+00  0.1200E+02
    -16.597  0.0000E+00  0.1200E+02
    -16.497  0.0000E+00  0.1200E+02
    -16.397  0.0000E+00  0.1200E+02
    -16.296  0.0000E+00  0.1200E+02
    -16.196  0.0000E+00  0.1200E+02
    -16.096  0.0000E+00  0.1200E+02
    -15.996  0.0000E+00  0.1200E+02
    -15.896  0.0000E+00  0.1200E+02
    -15.796  0.0000E+00  0.1200E+02
    -15.696  0.0000E+00  0.1200E+02
    -15.596  0.0000E+00  0.1200E+02
    -15.496  0.0000E+00  0.1200E+02
    -15.396  0.0000E+00  0.1200E+02
    -15.296  0.0000E+00  0.1200E+02
    -15.196  0.0000E+00  0.1200E+02
    -15.096  0.0000E+00  0.1200E+02
    -14.996  0.0000E+00  0.1200E+02
    -14.896  0.0000E+00  0.1200E+02
    -14.796  0.0000E+00  0.1200E+02
    -14.696  0.0000E+00  0.1200E+02
    -14.595  0.0000E+00  0.1200E+02
    -14.495  0.0000E+00  0.1200E+02
    -14.395  0.0000E+00  0.1200E+02
    -14.295  0.0000E+00  0.1200E+02
    -14.195  0.0000E+00  0.1200E+02
    -14.095  0.0000E+00  0.1200E+02
    -13.995  0.0000E+00  0.1200E+02
    -13.895  0.0000E+00  0.1200E+02
    -13.795  0.0000E+00  0.1200E+02
    -13.695  0.0000E+00  0.1200E+02
    -13.595  0.0000E+00  0.1200E+02
    -13.495  0.0000E+00  0.1200E+02
    -13.395  0.0000E+00  0.1200E+02
    -13.295  0.0000E+00  0.1200E+02
    -13.195  0.0000E+00  0.1200E+02
    -13.095  0.0000E+00  0.1200E+02
    -12.995  0.0000E+00  0.1200E+02
    -12.894  0.0000E+00  0.1200E+02
    -12.794  0.0000E+00  0.1200E+02
    -12.694  0.0000E+00  0.1200E+02
    -12.594  0.0000E+00  0.1200E+02
    -12.494  0.0000E+00  0.1200E+02
    -12.394  0.0000E+00  0.1200E+02
    -12.294  0.0000E+00  0.1200E+02
    -12.194  0.0000E+00  0.1200E+02
    -12.094  0.0000E+00  0.1200E+02
    -11.994  0.0000E+00  0.1200E+02
    -11.894  0.0000E+00  0.1400E+02
    -11.794  0.0000E+00  0.1600E+02
    -11.694  0.0000E+00  0.1600E+02
    -11.594  0.0000E+00  0.1800E+02
    -11.494  0.0000E+00  0.1800E+02
    -11.394  0.0000E+00  0.1800E+02
    -11.294  0.0000E+00  0.1800E+02
    -11.193  0.0000E+00  0.2000E+02
    -11.093  0.0000E+00  0.2000E+02
    -10.993  0.0000E+00  0.2200E+02
    -10.893  0.0000E+00  0.2400E+02
    -10.793  0.0000E+00  0.2400E+02
    -10.693  0.0000E+00  0.2400E+02
    -10.593  0.0000E+00  0.2400E+02
    -10.493  0.0000E+00  0.2400E+02
    -10.393  0.0000E+00  0.2400E+02
    -10.293  0.0000E+00  0.2400E+02
    -10.193  0.0000E+00  0.2400E+02
    -10.093  0.0000E+00  0.2400E+02
     -9.993  0.0000E+00  0.2400E+02
     -9.893  0.0000E+00  0.2400E+02
     -9.793  0.0000E+00  0.2400E+02
     -9.693  0.0000E+00  0.2400E+02
     -9.593  0.0000E+00  0.2400E+02
     -9.492  0.0000E+00  0.2400E+02
     -9.392  0.0000E+00  0.2400E+02
     -9.292  0.0000E+00  0.2400E+02
     -9.192  0.0000E+00  0.2400E+02
     -9.092  0.0000E+00  0.2400E+02
     -8.992  0.0000E+00  0.2400E+02
     -8.892  0.0000E+00  0.2400E+02
     -8.792  0.0000E+00  0.2600E+02
     -8.692  0.0000E+00  0.2600E+02
     -8.592  0.0000E+00  0.2800E+02
     -8.492  0.0000E+00  0.3000E+02
     -8.392  0.0000E+00  0.3000E+02
     -8.292  0.0000E+00  0.3000E+02
     -8.192  0.0000E+00  0.3000E+02
     -8.092  0.0000E+00  0.3000E+02
     -7.992  0.0000E+00  0.3200E+02
     -7.892  0.0000E+00  0.3400E+02
     -7.791  0.0000E+00  0.3400E+02
     -7.691  0.0000E+00  0.3400E+02
     -7.591  0.1962E+03  0.3501E+02
     -7.491  0.0000E+00  0.3600E+02
     -7.391  0.1562E+01  0.3605E+02
     -7.291  0.3835E+01  0.3632E+02
     -7.191  0.5281E+01  0.3681E+02
     -7.091  0.4107E+01  0.3728E+02
     -6.991  0.2933E+01  0.3763E+02
     -6.891  0.1759E+01  0.3787E+02
     -6.791  0.2433E+01  0.3805E+02
     -6.691  0.2139E+02  0.3878E+02
     -6.591  0.1344E+02  0.4096E+02
     -6.491  0.2010E+02  0.4327E+02
     -6.391  0.1372E+02  0.4548E+02
     -6.291  0.3866E+01  0.4740E+02
     -6.191  0.2614E+01  0.4773E+02
     -6.090  0.5700E+01  0.4797E+02
     -5.990  0.3147E+02  0.4982E+02
     -5.890  0.6029E+02  0.5280E+02
     -5.790  0.3081E+02  0.5560E+02
     -5.690  0.4283E+02  0.5706E+02
     -5.590  0.1755E+02  0.5920E+02
     -5.490  0.1198E+02  0.6067E+02
     -5.390  0.6405E+01  0.6159E+02
     -5.290  0.1274E+01  0.6196E+02
     -5.190  0.9806E+01  0.6421E+02
     -5.090  0.0000E+00  0.6600E+02
     -4.990  0.0000E+00  0.6600E+02
     -4.890  0.8477E+01  0.6699E+02
     -4.790  0.4255E+01  0.6763E+02
     -4.690  0.4289E+01  0.6796E+02
     -4.590  0.8183E+01  0.6857E+02
     -4.490  0.1235E+02  0.7104E+02
     -4.389  0.2162E+02  0.7274E+02
     -4.289  0.2168E+02  0.7461E+02
     -4.189  0.2129E+02  0.7683E+02
     -4.089  0.6119E+01  0.7820E+02
     -3.989  0.1357E+01  0.7842E+02
     -3.889  0.2203E+02  0.7948E+02
     -3.789  0.1203E+02  0.8278E+02
     -3.689  0.5307E+01  0.8441E+02
     -3.589  0.6281E+01  0.8504E+02
     -3.489  0.6204E+01  0.8567E+02
     -3.389  0.6127E+01  0.8628E+02
     -3.289  0.6050E+01  0.8689E+02
     -3.189  0.6854E+01  0.8751E+02
     -3.089  0.5072E+01  0.9079E+02
     -2.989  0.1039E+02  0.9159E+02
     -2.889  0.3890E+02  0.9405E+02
     -2.789  0.3618E+02  0.9791E+02
     -2.688  0.1725E+02  0.1005E+03
     -2.588  0.8260E+01  0.1017E+03
     -2.488  0.5949E+01  0.1024E+03
     -2.388  0.2166E+02  0.1051E+03
     -2.288  0.2723E+01  0.1073E+03
     -2.188  0.1540E+02  0.1079E+03
     -2.088  0.7870E+01  0.1091E+03
     -1.988  0.4187E+01  0.1095E+03
     -1.888  0.1903E+02  0.1106E+03
     -1.788  0.3222E+02  0.1134E+03
     -1.688  0.3289E+02  0.1167E+03
     -1.588  0.3673E+02  0.1203E+03
     -1.488  0.1768E+02  0.1230E+03
     -1.388  0.1222E+02  0.1245E+03
     -1.288  0.1320E+02  0.1270E+03
     -1.188  0.9061E+01  0.1281E+03
     -1.088  0.9937E+01  0.1289E+03
     -0.987  0.2752E+02  0.1306E+03
     -0.887  0.1832E+02  0.1341E+03
     -0.787  0.9111E+01  0.1354E+03
     -0.687  0.8704E+02  0.1369E+03
     -0.587  0.2451E+02  0.1417E+03
     -0.487  0.2055E+02  0.1436E+03
     -0.387  0.1018E+02  0.1447E+03
     -0.287  0.1630E+02  0.1461E+03
     -0.187  0.9193E+01  0.1476E+03
     -0.087  0.9548E+01  0.1491E+03
      0.013  0.4051E+02  0.1506E+03
      0.113  0.1441E+02  0.1541E+03
      0.213  0.5817E+01  0.1580E+03
      0.313  0.5825E+01  0.1602E+03
      0.413  0.1435E+02  0.1612E+03
      0.513  0.2154E+02  0.1634E+03
      0.613  0.4079E+02  0.1670E+03
      0.714  0.1020E+02  0.1691E+03
      0.814  0.3789E+01  0.1698E+03
      0.914  0.2990E+02  0.1742E+03
      1.014  0.4813E+02  0.1759E+03
      1.114  0.1756E+02  0.1787E+03
      1.214  0.2716E+02  0.1806E+03
      1.314  0.3230E+02  0.1843E+03
      1.414  0.4549E+02  0.1876E+03
      1.514  0.5085E+02  0.1932E+03
      1.614  0.3404E+02  0.1984E+03
      1.714  0.1206E+02  0.2007E+03
      1.814  0.8989E+01  0.2015E+03
      1.914  0.7141E+01  0.2023E+03
      2.014  0.5293E+01  0.2029E+03
      2.114  0.1404E+02  0.2040E+03
      2.214  0.0000E+00  0.2040E+03
      2.314  0.0000E+00  0.2040E+03
      2.415  0.0000E+00  0.2040E+03
      2.515  0.0000E+00  0.2040E+03
      2.615  0.0000E+00  0.2040E+03
      2.715  0.0000E+00  0.2040E+03
      2.815  0.0000E+00  0.2040E+03
      2.915  0.0000E+00  0.2040E+03
      3.015  0.0000E+00  0.2040E+03
      3.115  0.0000E+00  0.2040E+03
      3.215  0.0000E+00  0.2040E+03
      3.315  0.0000E+00  0.2040E+03
      3.415  0.0000E+00  0.2040E+03
      3.515  0.0000E+00  0.2040E+03
      3.615  0.0000E+00  0.2040E+03
      3.715  0.0000E+00  0.2040E+03
      3.815  0.0000E+00  0.2040E+03
      3.915  0.0000E+00  0.2040E+03
      4.015  0.0000E+00  0.2040E+03
      4.116  0.0000E+00  0.2040E+03
