Automatically generated mesh
       5
Reciprocal lattice
    0.00000000000000    0.00000000000000    0.00000000000000             1
    0.33333333333333   -0.00000000000000    0.00000000000000             2
    0.00000000000000    0.33333333333333    0.00000000000000             2
    0.33333333333333    0.33333333333333    0.00000000000000             2
   -0.33333333333333    0.33333333333333    0.00000000000000             2
Tetrahedra
        24    0.01851851851852
         2         2         3         3         4
         2         1         2         3         3
         2         1         1         2         3
         2         2         3         4         4
         2         2         2         3         4
         2         1         2         2         3
         2         2         4         4         5
         2         2         2         4         4
         4         2         2         2         4
         2         2         4         5         5
         2         2         2         4         5
         2         1         3         5         5
         2         1         2         5         5
         2         1         2         2         5
         2         1         3         3         5
         2         1         1         3         5
         2         1         1         2         5
         2         3         3         4         5
         4         3         3         3         4
         2         3         4         5         5
         2         3         4         4         5
         2         3         3         4         4
         4         4         5         5         5
         2         4         4         5         5
