       N       E                     dE             d eps       ncg     rms          rms(c)
RMM:   1     0.124408687117E+04    0.12441E+04   -0.27920E+04   510   0.785E+02
RMM:   2     0.545534939271E+03   -0.69855E+03   -0.75643E+03   510   0.166E+02
RMM:   3     0.311027546485E+03   -0.23451E+03   -0.29920E+03   510   0.830E+01
RMM:   4     0.135863402835E+03   -0.17516E+03   -0.15103E+03   510   0.785E+01
RMM:   5     0.191885153340E+02   -0.11667E+03   -0.93742E+02   510   0.631E+01
RMM:   6    -0.444326114223E+02   -0.63621E+02   -0.48611E+02   510   0.439E+01
RMM:   7    -0.693853642415E+02   -0.24953E+02   -0.19295E+02   510   0.253E+01
RMM:   8    -0.758649075742E+02   -0.64795E+01   -0.55162E+01   510   0.133E+01
RMM:   9    -0.780119909537E+02   -0.21471E+01   -0.20805E+01  1488   0.755E+00
RMM:  10    -0.783166775815E+02   -0.30469E+00   -0.31341E+00  1773   0.284E+00
RMM:  11    -0.783186847455E+02   -0.20072E-02   -0.16702E-01  1724   0.704E-01
RMM:  12    -0.783216547750E+02   -0.29700E-02   -0.35031E-02  1818   0.295E-01    0.195E+01
RMM:  13    -0.684929386550E+02    0.98287E+01   -0.56371E+01  1430   0.131E+01    0.754E+00
RMM:  14    -0.776191599341E+02   -0.91262E+01   -0.41143E+00  1549   0.298E+00    0.736E+00
RMM:  15    -0.684750291504E+02    0.91441E+01   -0.16781E+00  1479   0.116E+00    0.506E+00
RMM:  16    -0.679884439528E+02    0.48659E+00   -0.12273E+00  1528   0.192E+00    0.228E+00
RMM:  17    -0.678437113321E+02    0.14473E+00   -0.34953E-01  1309   0.121E+00    0.934E-01
RMM:  18    -0.678195883920E+02    0.24123E-01   -0.10976E-01  1605   0.631E-01    0.376E-01
RMM:  19    -0.678199368030E+02   -0.34841E-03   -0.26781E-02  1366   0.332E-01    0.239E-01
RMM:  20    -0.678203615902E+02   -0.42479E-03   -0.10588E-02  1493   0.206E-01    0.588E-02
RMM:  21    -0.678186621229E+02    0.16995E-02   -0.12440E-03  1569   0.633E-02    0.409E-02
RMM:  22    -0.678130875214E+02    0.55746E-02   -0.95588E-04  1361   0.514E-02    0.403E-02
RMM:  23    -0.678106388798E+02    0.24486E-02   -0.28118E-04  1301   0.308E-02    0.194E-02
RMM:  24    -0.678112436451E+02   -0.60477E-03   -0.28363E-04  1150   0.338E-02    0.191E-02
RMM:  25    -0.678117264971E+02   -0.48285E-03   -0.15603E-04  1087   0.250E-02    0.740E-03
RMM:  26    -0.678115846628E+02    0.14183E-03   -0.23509E-04  1056   0.241E-02    0.103E-02
RMM:  27    -0.678114960340E+02    0.88629E-04   -0.10320E-04  1014   0.162E-02    0.303E-03
RMM:  28    -0.678114902944E+02    0.57396E-05   -0.80631E-05   896   0.111E-02    0.258E-03
RMM:  29    -0.678115385141E+02   -0.48220E-04   -0.41038E-05   838   0.854E-03    0.781E-04
RMM:  30    -0.678115608307E+02   -0.22317E-04   -0.27567E-05   834   0.577E-03    0.474E-04
RMM:  31    -0.678115687683E+02   -0.79376E-05   -0.40610E-05   809   0.832E-03    0.476E-04
RMM:  32    -0.678115918926E+02   -0.23124E-04   -0.39527E-05   789   0.823E-03    0.313E-04
RMM:  33    -0.678115895444E+02    0.23481E-05   -0.61023E-06   758   0.398E-03
   1 F= -.67811590E+02 E0= -.67811590E+02  d E =0.000000E+00
