 running on   72 total cores
 distrk:  each k-point on   72 cores,    1 groups
 distr:  one band on   24 cores,    3 groups
 using from now: INCAR     
 vasp.5.4.4.18Apr17-6-g9f103f2a35 (build Jun 08 2018 12:06:12) complex          
  
 POSCAR found type information on POSCAR  Mg O  H 
 POSCAR found :  3 types and      63 ions
 scaLAPACK will be used

 ----------------------------------------------------------------------------- 
|                                                                             |
|           W    W    AA    RRRRR   N    N  II  N    N   GGGG   !!!           |
|           W    W   A  A   R    R  NN   N  II  NN   N  G    G  !!!           |
|           W    W  A    A  R    R  N N  N  II  N N  N  G       !!!           |
|           W WW W  AAAAAA  RRRRR   N  N N  II  N  N N  G  GGG   !            |
|           WW  WW  A    A  R   R   N   NN  II  N   NN  G    G                |
|           W    W  A    A  R    R  N    N  II  N    N   GGGG   !!!           |
|                                                                             |
|      For optimal performance we recommend to set                            |
|        NCORE= 4 - approx SQRT( number of cores)                             |
|      NCORE specifies how many cores store one orbital (NPAR=cpu/NCORE).     |
|      This setting can  greatly improve the performance of VASP for DFT.     |
|      The default,   NCORE=1            might be grossly inefficient         |
|      on modern multi-core architectures or massively parallel machines.     |
|      Do your own testing !!!!                                               |
|      Unfortunately you need to use the default for GW and RPA calculations. |
|      (for HF NCORE is supported but not extensively tested yet)             |
|                                                                             |
 ----------------------------------------------------------------------------- 


 ----------------------------------------------------------------------------- 
|                                                                             |
|  ADVICE TO THIS USER RUNNING 'VASP/VAMP'   (HEAR YOUR MASTER'S VOICE ...):  |
|                                                                             |
|      You have switched on vdW-DFT.                                          |
|      This routine was written and supplied by Jiri Klimes.                  |
|      We recommed that you carefully read and cite the following             |
|      publication                                                            |
|      J. Klimes, D.R. Bowler, A. Michelides                                  |
|        J. Phys.: Cond Matt. 22 022201 (2010)                                |
|      J. Klimes, D.R. Bowler, A. Michelides                                  |
|        Phys. Rev. B. 83, 195131 (2011)                                      |
|      and references therein.                                                |
|                                                                             |
 ----------------------------------------------------------------------------- 


 ----------------------------------------------------------------------------- 
|                                                                             |
|  ADVICE TO THIS USER RUNNING 'VASP/VAMP'   (HEAR YOUR MASTER'S VOICE ...):  |
|                                                                             |
|      You enforced a specific xc-type in the INCAR file,                     |
|      a different type was found on the POTCAR file                          |
|          I HOPE YOU KNOW, WHAT YOU ARE  DOING                               |
|                                                                             |
 ----------------------------------------------------------------------------- 

 LDA part: xc-table for Pade appr. of Perdew
 POSCAR found type information on POSCAR  Mg O  H 
 POSCAR found :  3 types and      63 ions
 POSCAR, INCAR and KPOINTS ok, starting setup
 FFT: planning ...
 WAVECAR not read
 augmentation electrons   138.064204081691     
 soft         electrons  0.000000000000000E+000
 augmentation electrons   138.064204081691     
 soft         electrons  0.000000000000000E+000
 augmentation electrons   138.064204081691     
 soft         electrons  0.000000000000000E+000
 augmentation electrons   138.064204081691     
 soft         electrons  0.000000000000000E+000
 augmentation electrons   138.064204081691     
 soft         electrons  0.000000000000000E+000
 augmentation electrons   138.064204081691     
 soft         electrons  0.000000000000000E+000
 augmentation electrons   138.064204081691     
 soft         electrons  0.000000000000000E+000
 augmentation electrons   138.064204081691     
 soft         electrons  0.000000000000000E+000
 augmentation electrons   138.064204081691     
 soft         electrons  0.000000000000000E+000
 augmentation electrons   138.064204081691     
 soft         electrons  0.000000000000000E+000
 augmentation electrons   138.064204081691     
 soft         electrons  0.000000000000000E+000
 augmentation electrons   138.064204081691     
 soft         electrons  0.000000000000000E+000
 augmentation electrons   138.064204081691     
 soft         electrons  0.000000000000000E+000
 augmentation electrons   138.064204081691     
 soft         electrons  0.000000000000000E+000
 augmentation electrons   138.064204081691     
 soft         electrons  0.000000000000000E+000
 augmentation electrons   138.064204081691     
 soft         electrons  0.000000000000000E+000
 augmentation electrons   138.064204081691     
 soft         electrons  0.000000000000000E+000
 augmentation electrons   138.064204081691     
 soft         electrons  0.000000000000000E+000
 augmentation electrons   138.064204081691     
 soft         electrons  0.000000000000000E+000
 augmentation electrons   138.064204081691     
 soft         electrons  0.000000000000000E+000
 augmentation electrons   138.064204081691     
 soft         electrons  0.000000000000000E+000
 augmentation electrons   138.064204081691     
 soft         electrons  0.000000000000000E+000
 augmentation electrons   138.064204081691     
 soft         electrons  0.000000000000000E+000
 augmentation electrons   138.064204081691     
 soft         electrons  0.000000000000000E+000
 augmentation electrons   138.064204081691     
 soft         electrons  0.000000000000000E+000
 augmentation electrons   138.064204081691     
 soft         electrons  0.000000000000000E+000
 augmentation electrons   138.064204081691     
 soft         electrons  0.000000000000000E+000
 augmentation electrons   138.064204081691     
 soft         electrons  0.000000000000000E+000
 augmentation electrons   138.064204081691     
 soft         electrons  0.000000000000000E+000
 augmentation electrons   138.064204081691     
 soft         electrons  0.000000000000000E+000
 augmentation electrons   138.064204081691     
 soft         electrons  0.000000000000000E+000
 augmentation electrons   138.064204081691     
 soft         electrons  0.000000000000000E+000
 augmentation electrons   138.064204081691     
 soft         electrons  0.000000000000000E+000
 augmentation electrons   138.064204081691     
 soft         electrons  0.000000000000000E+000
 augmentation electrons   138.064204081691     
 soft         electrons  0.000000000000000E+000
 total        electrons   138.064204081691     
 augmentation electrons   138.064204081691     
 soft         electrons  0.000000000000000E+000
 augmentation electrons   138.064204081691     
 soft         electrons  0.000000000000000E+000
 augmentation electrons   138.064204081691     
 soft         electrons  0.000000000000000E+000
 total        electrons   138.064204081691     
 augmentation electrons   138.064204081691     
 soft         electrons  0.000000000000000E+000
 augmentation electrons   138.064204081691     
 soft         electrons  0.000000000000000E+000
 augmentation electrons   138.064204081691     
 soft         electrons  0.000000000000000E+000
 total        electrons   138.064204081691     
 augmentation electrons   138.064204081691     
 soft         electrons  0.000000000000000E+000
 augmentation electrons   138.064204081691     
 soft         electrons  0.000000000000000E+000
 augmentation electrons   138.064204081691     
 soft         electrons  0.000000000000000E+000
 total        electrons   138.064204081691     
 augmentation electrons   138.064204081691     
 soft         electrons  0.000000000000000E+000
 augmentation electrons   138.064204081691     
 soft         electrons  0.000000000000000E+000
 augmentation electrons   138.064204081691     
 soft         electrons  0.000000000000000E+000
 total        electrons   138.064204081691     
 augmentation electrons   138.064204081691     
 soft         electrons  0.000000000000000E+000
 augmentation electrons   138.064204081691     
 soft         electrons  0.000000000000000E+000
 augmentation electrons   138.064204081691     
 soft         electrons  0.000000000000000E+000
 total        electrons   138.064204081691     
 augmentation electrons   138.064204081691     
 soft         electrons  0.000000000000000E+000
 augmentation electrons   138.064204081691     
 soft         electrons  0.000000000000000E+000
 augmentation electrons   138.064204081691     
 soft         electrons  0.000000000000000E+000
 total        electrons   138.064204081691     
 augmentation electrons   138.064204081691     
 augmentation electrons   138.064204081691     
 total        electrons   138.064204081691     
 augmentation electrons   138.064204081691     
 soft         electrons  0.000000000000000E+000
 augmentation electrons   138.064204081691     
 soft         electrons  0.000000000000000E+000
 total        electrons   138.064204081691     
 augmentation electrons   138.064204081691     
 soft         electrons  0.000000000000000E+000
 augmentation electrons   138.064204081691     
 soft         electrons  0.000000000000000E+000
 total        electrons   138.064204081691     
 augmentation electrons   138.064204081691     
 soft         electrons  0.000000000000000E+000
 augmentation electrons   138.064204081691     
 soft         electrons  0.000000000000000E+000
 total        electrons   138.064204081691     
 augmentation electrons   138.064204081691     
 soft         electrons  0.000000000000000E+000
 augmentation electrons   138.064204081691     
 soft         electrons  0.000000000000000E+000
 total        electrons   138.064204081691     
 augmentation electrons   138.064204081691     
 soft         electrons  0.000000000000000E+000
 augmentation electrons   138.064204081691     
 soft         electrons  0.000000000000000E+000
 total        electrons   138.064204081691     
 augmentation electrons   138.064204081691     
 soft         electrons  0.000000000000000E+000
 augmentation electrons   138.064204081691     
 soft         electrons  0.000000000000000E+000
 total        electrons   138.064204081691     
 augmentation electrons   138.064204081691     
 soft         electrons  0.000000000000000E+000
 soft         electrons  0.000000000000000E+000
 total        electrons   138.064204081691     
 augmentation electrons   138.064204081691     
 soft         electrons  0.000000000000000E+000
 total        electrons   138.064204081691     
 total        electrons   138.064204081691     
 augmentation electrons   138.064204081691     
 soft         electrons  0.000000000000000E+000
 total        electrons   138.064204081691     
 augmentation electrons   138.064204081691     
 soft         electrons  0.000000000000000E+000
 total        electrons   138.064204081691     
 augmentation electrons   138.064204081691     
 soft         electrons  0.000000000000000E+000
 total        electrons   138.064204081691     
 total        electrons   138.064204081691     
 soft         electrons  0.000000000000000E+000
 total        electrons   138.064204081691     
 total        electrons   138.064204081691     
 total        electrons   138.064204081691     
 total        electrons   138.064204081691     
 total        electrons   138.064204081691     
 total        electrons   138.064204081691     
 total        electrons   138.064204081691     
 total        electrons   138.064204081691     
 total        electrons   138.064204081691     
 total        electrons   138.064204081691     
 total        electrons   138.064204081691     
 total        electrons   138.064204081691     
 total        electrons   138.064204081691     
 total        electrons   138.064204081691     
 total        electrons   138.064204081691     
 total        electrons   138.064204081691     
 total        electrons   138.064204081691     
 total        electrons   138.064204081691     
 total        electrons   138.064204081691     
 total        electrons   138.064204081691     
 total        electrons   138.064204081691     
 total        electrons   138.064204081691     
 total        electrons   138.064204081691     
 total        electrons   138.064204081691     
 total        electrons   138.064204081691     
 total        electrons   138.064204081691     
 total        electrons   138.064204081691     
 total        electrons   138.064204081691     
 total        electrons   138.064204081691     
 total        electrons   138.064204081691     
 total        electrons   138.064204081691     
 total        electrons   138.064204081691     
 total        electrons   138.064204081691     
 total        electrons   138.064204081691     
 total        electrons   138.064204081691     
 total        electrons   138.064204081691     
 total        electrons   138.064204081691     
 total        electrons   138.064204081691     
 total        electrons   138.064204081691     
 total        electrons   138.064204081691     
 total        electrons   138.064204081691     
 total        electrons   138.064204081691     
 total        electrons   138.064204081691     
 total        electrons   138.064204081691     
 total        electrons   138.064204081691     
 total        electrons   138.064204081691     
 total        electrons   138.064204081691     
 total        electrons   138.064204081691     
 total        electrons   138.064204081691     
 total        electrons   138.064204081691     
 total        electrons   138.064204081691     
 augmentation electrons   480.853107745045     
 soft         electrons  0.000000000000000E+000
 augmentation electrons   480.853107745045     
 soft         electrons  0.000000000000000E+000
 augmentation electrons   480.853107745045     
 soft         electrons  0.000000000000000E+000
 augmentation electrons   480.853107745045     
 soft         electrons  0.000000000000000E+000
 augmentation electrons   480.853107745045     
 soft         electrons  0.000000000000000E+000
 augmentation electrons   480.853107745045     
 soft         electrons  0.000000000000000E+000
 augmentation electrons   480.853107745045     
 soft         electrons  0.000000000000000E+000
 augmentation electrons   480.853107745045     
 soft         electrons  0.000000000000000E+000
 augmentation electrons   480.853107745045     
 soft         electrons  0.000000000000000E+000
 augmentation electrons   480.853107745045     
 soft         electrons  0.000000000000000E+000
 augmentation electrons   480.853107745045     
 soft         electrons  0.000000000000000E+000
 augmentation electrons   480.853107745045     
 soft         electrons  0.000000000000000E+000
 total        electrons   480.853107745045     
 augmentation electrons   480.853107745045     
 soft         electrons  0.000000000000000E+000
 augmentation electrons   480.853107745045     
 soft         electrons  0.000000000000000E+000
 augmentation electrons   480.853107745045     
 soft         electrons  0.000000000000000E+000
 total        electrons   480.853107745045     
 augmentation electrons   480.853107745045     
 soft         electrons  0.000000000000000E+000
 augmentation electrons   480.853107745045     
 soft         electrons  0.000000000000000E+000
 augmentation electrons   480.853107745045     
 soft         electrons  0.000000000000000E+000
 total        electrons   480.853107745045     
 augmentation electrons   480.853107745045     
 soft         electrons  0.000000000000000E+000
 augmentation electrons   480.853107745045     
 soft         electrons  0.000000000000000E+000
 augmentation electrons   480.853107745045     
 soft         electrons  0.000000000000000E+000
 total        electrons   480.853107745045     
 augmentation electrons   480.853107745045     
 soft         electrons  0.000000000000000E+000
 augmentation electrons   480.853107745045     
 soft         electrons  0.000000000000000E+000
 augmentation electrons   480.853107745045     
 soft         electrons  0.000000000000000E+000
 total        electrons   480.853107745045     
 augmentation electrons   480.853107745045     
 soft         electrons  0.000000000000000E+000
 augmentation electrons   480.853107745045     
 soft         electrons  0.000000000000000E+000
 augmentation electrons   480.853107745045     
 soft         electrons  0.000000000000000E+000
 total        electrons   480.853107745045     
 augmentation electrons   480.853107745045     
 soft         electrons  0.000000000000000E+000
 augmentation electrons   480.853107745045     
 soft         electrons  0.000000000000000E+000
 augmentation electrons   480.853107745045     
 soft         electrons  0.000000000000000E+000
 total        electrons   480.853107745045     
 augmentation electrons   480.853107745045     
 soft         electrons  0.000000000000000E+000
 augmentation electrons   480.853107745045     
 soft         electrons  0.000000000000000E+000
 augmentation electrons   480.853107745045     
 soft         electrons  0.000000000000000E+000
 total        electrons   480.853107745045     
 augmentation electrons   480.853107745045     
 soft         electrons  0.000000000000000E+000
 augmentation electrons   480.853107745045     
 soft         electrons  0.000000000000000E+000
 augmentation electrons   480.853107745045     
 soft         electrons  0.000000000000000E+000
 total        electrons   480.853107745045     
 augmentation electrons   480.853107745045     
 soft         electrons  0.000000000000000E+000
 augmentation electrons   480.853107745045     
 soft         electrons  0.000000000000000E+000
 augmentation electrons   480.853107745045     
 soft         electrons  0.000000000000000E+000
 total        electrons   480.853107745045     
 augmentation electrons   480.853107745045     
 soft         electrons  0.000000000000000E+000
 augmentation electrons   480.853107745045     
 soft         electrons  0.000000000000000E+000
 augmentation electrons   480.853107745045     
 soft         electrons  0.000000000000000E+000
 total        electrons   480.853107745045     
 augmentation electrons   480.853107745045     
 soft         electrons  0.000000000000000E+000
 augmentation electrons   480.853107745045     
 soft         electrons  0.000000000000000E+000
 augmentation electrons   480.853107745045     
 soft         electrons  0.000000000000000E+000
 total        electrons   480.853107745045     
 augmentation electrons   480.853107745045     
 soft         electrons  0.000000000000000E+000
 augmentation electrons   480.853107745045     
 soft         electrons  0.000000000000000E+000
 augmentation electrons   480.853107745045     
 soft         electrons  0.000000000000000E+000
 total        electrons   480.853107745045     
 augmentation electrons   480.853107745045     
 soft         electrons  0.000000000000000E+000
 augmentation electrons   480.853107745045     
 augmentation electrons   480.853107745045     
 soft         electrons  0.000000000000000E+000
 total        electrons   480.853107745045     
 augmentation electrons   480.853107745045     
 soft         electrons  0.000000000000000E+000
 augmentation electrons   480.853107745045     
 soft         electrons  0.000000000000000E+000
 augmentation electrons   480.853107745045     
 soft         electrons  0.000000000000000E+000
 total        electrons   480.853107745045     
 augmentation electrons   480.853107745045     
 soft         electrons  0.000000000000000E+000
 augmentation electrons   480.853107745045     
 soft         electrons  0.000000000000000E+000
 augmentation electrons   480.853107745045     
 soft         electrons  0.000000000000000E+000
 total        electrons   480.853107745045     
 augmentation electrons   480.853107745045     
 soft         electrons  0.000000000000000E+000
 augmentation electrons   480.853107745045     
 soft         electrons  0.000000000000000E+000
 augmentation electrons   480.853107745045     
 soft         electrons  0.000000000000000E+000
 total        electrons   480.853107745045     
 augmentation electrons   480.853107745045     
 soft         electrons  0.000000000000000E+000
 augmentation electrons   480.853107745045     
 soft         electrons  0.000000000000000E+000
 total        electrons   480.853107745045     
 augmentation electrons   480.853107745045     
 soft         electrons  0.000000000000000E+000
 augmentation electrons   480.853107745045     
 soft         electrons  0.000000000000000E+000
 total        electrons   480.853107745045     
 augmentation electrons   480.853107745045     
 soft         electrons  0.000000000000000E+000
 augmentation electrons   480.853107745045     
 soft         electrons  0.000000000000000E+000
 total        electrons   480.853107745045     
 augmentation electrons   480.853107745045     
 soft         electrons  0.000000000000000E+000
 augmentation electrons   480.853107745045     
 soft         electrons  0.000000000000000E+000
 augmentation electrons   480.853107745045     
 soft         electrons  0.000000000000000E+000
 augmentation electrons   480.853107745045     
 soft         electrons  0.000000000000000E+000
 total        electrons   480.853107745045     
 augmentation electrons   480.853107745045     
 soft         electrons  0.000000000000000E+000
 total        electrons   480.853107745045     
 augmentation electrons   480.853107745045     
 soft         electrons  0.000000000000000E+000
 total        electrons   480.853107745045     
 soft         electrons  0.000000000000000E+000
 total        electrons   480.853107745045     
 total        electrons   480.853107745045     
 total        electrons   480.853107745045     
 total        electrons   480.853107745045     
 total        electrons   480.853107745045     
 total        electrons   480.853107745045     
 total        electrons   480.853107745045     
 total        electrons   480.853107745045     
 total        electrons   480.853107745045     
 total        electrons   480.853107745045     
 total        electrons   480.853107745045     
 total        electrons   480.853107745045     
 total        electrons   480.853107745045     
 total        electrons   480.853107745045     
 total        electrons   480.853107745045     
 total        electrons   480.853107745045     
 total        electrons   480.853107745045     
 total        electrons   480.853107745045     
 total        electrons   480.853107745045     
 total        electrons   480.853107745045     
 total        electrons   480.853107745045     
 total        electrons   480.853107745045     
 total        electrons   480.853107745045     
 total        electrons   480.853107745045     
 total        electrons   480.853107745045     
 total        electrons   480.853107745045     
 total        electrons   480.853107745045     
 total        electrons   480.853107745045     
 total        electrons   480.853107745045     
 total        electrons   480.853107745045     
 total        electrons   480.853107745045     
 total        electrons   480.853107745045     
 total        electrons   480.853107745045     
 total        electrons   480.853107745045     
 total        electrons   480.853107745045     
 total        electrons   480.853107745045     
 total        electrons   480.853107745045     
 total        electrons   480.853107745045     
 total        electrons   480.853107745045     
 total        electrons   480.853107745045     
 total        electrons   480.853107745045     
 total        electrons   480.853107745045     
 total        electrons   480.853107745045     
 total        electrons   480.853107745045     
 total        electrons   480.853107745045     
 total        electrons   480.853107745045     
 total        electrons   480.853107745045     
 total        electrons   480.853107745045     
 total        electrons   480.853107745045     
 entering main loop
       N       E                     dE             d eps       ncg     rms          rms(c)
Total vdW correction in eV:     53.8548720
RMM:   1     0.124408687117E+04    0.12441E+04   -0.27920E+04   510   0.785E+02
RMM:   2     0.545534939271E+03   -0.69855E+03   -0.75643E+03   510   0.166E+02
RMM:   3     0.311027546485E+03   -0.23451E+03   -0.29920E+03   510   0.830E+01
RMM:   4     0.135863402835E+03   -0.17516E+03   -0.15103E+03   510   0.785E+01
RMM:   5     0.191885153340E+02   -0.11667E+03   -0.93742E+02   510   0.631E+01
RMM:   6    -0.444326114223E+02   -0.63621E+02   -0.48611E+02   510   0.439E+01
RMM:   7    -0.693853642415E+02   -0.24953E+02   -0.19295E+02   510   0.253E+01
RMM:   8    -0.758649075742E+02   -0.64795E+01   -0.55162E+01   510   0.133E+01
RMM:   9    -0.780119909537E+02   -0.21471E+01   -0.20805E+01  1488   0.755E+00
RMM:  10    -0.783166775815E+02   -0.30469E+00   -0.31341E+00  1773   0.284E+00
RMM:  11    -0.783186847455E+02   -0.20072E-02   -0.16702E-01  1724   0.704E-01
RMM:  12    -0.783216547750E+02   -0.29700E-02   -0.35031E-02  1818   0.295E-01    0.195E+01
Total vdW correction in eV:     53.8421505
RMM:  13    -0.684929386550E+02    0.98287E+01   -0.56371E+01  1430   0.131E+01    0.754E+00
Total vdW correction in eV:     53.7792545
RMM:  14    -0.776191599341E+02   -0.91262E+01   -0.41143E+00  1549   0.298E+00    0.736E+00
Total vdW correction in eV:     53.7622779
RMM:  15    -0.684750291504E+02    0.91441E+01   -0.16781E+00  1479   0.116E+00    0.506E+00
Total vdW correction in eV:     53.6818867
RMM:  16    -0.679884439528E+02    0.48659E+00   -0.12273E+00  1528   0.192E+00    0.228E+00
Total vdW correction in eV:     53.6592677
RMM:  17    -0.678437113321E+02    0.14473E+00   -0.34953E-01  1309   0.121E+00    0.934E-01
Total vdW correction in eV:     53.6685782
RMM:  18    -0.678195883920E+02    0.24123E-01   -0.10976E-01  1605   0.631E-01    0.376E-01
Total vdW correction in eV:     53.6750558
RMM:  19    -0.678199368030E+02   -0.34841E-03   -0.26781E-02  1366   0.332E-01    0.239E-01
Total vdW correction in eV:     53.6800916
RMM:  20    -0.678203615902E+02   -0.42479E-03   -0.10588E-02  1493   0.206E-01    0.588E-02
Total vdW correction in eV:     53.6853120
RMM:  21    -0.678186621229E+02    0.16995E-02   -0.12440E-03  1569   0.633E-02    0.409E-02
Total vdW correction in eV:     53.6940858
RMM:  22    -0.678130875214E+02    0.55746E-02   -0.95588E-04  1361   0.514E-02    0.403E-02
Total vdW correction in eV:     53.6989700
RMM:  23    -0.678106388798E+02    0.24486E-02   -0.28118E-04  1301   0.308E-02    0.194E-02
Total vdW correction in eV:     53.7043054
RMM:  24    -0.678112436451E+02   -0.60477E-03   -0.28363E-04  1150   0.338E-02    0.191E-02
Total vdW correction in eV:     53.7067615
RMM:  25    -0.678117264971E+02   -0.48285E-03   -0.15603E-04  1087   0.250E-02    0.740E-03
Total vdW correction in eV:     53.7081919
RMM:  26    -0.678115846628E+02    0.14183E-03   -0.23509E-04  1056   0.241E-02    0.103E-02
Total vdW correction in eV:     53.7083477
RMM:  27    -0.678114960340E+02    0.88629E-04   -0.10320E-04  1014   0.162E-02    0.303E-03
Total vdW correction in eV:     53.7084636
RMM:  28    -0.678114902944E+02    0.57396E-05   -0.80631E-05   896   0.111E-02    0.258E-03
Total vdW correction in eV:     53.7083898
RMM:  29    -0.678115385141E+02   -0.48220E-04   -0.41038E-05   838   0.854E-03    0.781E-04
Total vdW correction in eV:     53.7083143
RMM:  30    -0.678115608307E+02   -0.22317E-04   -0.27567E-05   834   0.577E-03    0.474E-04
Total vdW correction in eV:     53.7082639
RMM:  31    -0.678115687683E+02   -0.79376E-05   -0.40610E-05   809   0.832E-03    0.476E-04
Total vdW correction in eV:     53.7081798
RMM:  32    -0.678115918926E+02   -0.23124E-04   -0.39527E-05   789   0.823E-03    0.313E-04
Total vdW correction in eV:     53.7081534
RMM:  33    -0.678115895444E+02    0.23481E-05   -0.61023E-06   758   0.398E-03
Total vdW correction in eV:     53.7081149
Total vdW correction in eV:     53.7081369
   1 F= -.67811590E+02 E0= -.67811590E+02  d E =0.000000E+00
 augmentation electrons   4.45989718217296     
 soft         electrons   133.581269601226     
 augmentation electrons   4.45989718217296     
 soft         electrons   133.581269601226     
 augmentation electrons   4.45989718217296     
 soft         electrons   133.581269601226     
 augmentation electrons   4.45989718217296     
 soft         electrons   133.581269601226     
 augmentation electrons   4.45989718217296     
 soft         electrons   133.581269601226     
 augmentation electrons   4.45989718217296     
 soft         electrons   133.581269601226     
 augmentation electrons   4.45989718217296     
 soft         electrons   133.581269601226     
 augmentation electrons   4.45989718217296     
 soft         electrons   133.581269601226     
 augmentation electrons   4.45989718217296     
 soft         electrons   133.581269601226     
 augmentation electrons   4.45989718217296     
 soft         electrons   133.581269601226     
 total        electrons   138.041166783399     
 augmentation electrons   4.45989718217296     
 soft         electrons   133.581269601226     
 augmentation electrons   4.45989718217296     
 soft         electrons   133.581269601226     
 augmentation electrons   4.45989718217296     
 soft         electrons   133.581269601226     
 total        electrons   138.041166783399     
 augmentation electrons   4.45989718217296     
 soft         electrons   133.581269601226     
 augmentation electrons   4.45989718217296     
 soft         electrons   133.581269601226     
 augmentation electrons   4.45989718217296     
 soft         electrons   133.581269601226     
 total        electrons   138.041166783399     
 augmentation electrons   4.45989718217296     
 augmentation electrons   4.45989718217296     
 soft         electrons   133.581269601226     
 augmentation electrons   4.45989718217296     
 soft         electrons   133.581269601226     
 total        electrons   138.041166783399     
 augmentation electrons   4.45989718217296     
 soft         electrons   133.581269601226     
 augmentation electrons   4.45989718217296     
 soft         electrons   133.581269601226     
 augmentation electrons   4.45989718217296     
 soft         electrons   133.581269601226     
 total        electrons   138.041166783399     
 augmentation electrons   4.45989718217296     
 soft         electrons   133.581269601226     
 augmentation electrons   4.45989718217296     
 soft         electrons   133.581269601226     
 augmentation electrons   4.45989718217296     
 soft         electrons   133.581269601226     
 total        electrons   138.041166783399     
 augmentation electrons   4.45989718217296     
 soft         electrons   133.581269601226     
 augmentation electrons   4.45989718217296     
 soft         electrons   133.581269601226     
 augmentation electrons   4.45989718217296     
 soft         electrons   133.581269601226     
 total        electrons   138.041166783399     
 augmentation electrons   4.45989718217296     
 soft         electrons   133.581269601226     
 augmentation electrons   4.45989718217296     
 soft         electrons   133.581269601226     
 augmentation electrons   4.45989718217296     
 soft         electrons   133.581269601226     
 total        electrons   138.041166783399     
 augmentation electrons   4.45989718217296     
 soft         electrons   133.581269601226     
 augmentation electrons   4.45989718217296     
 soft         electrons   133.581269601226     
 augmentation electrons   4.45989718217296     
 soft         electrons   133.581269601226     
 total        electrons   138.041166783399     
 augmentation electrons   4.45989718217296     
 soft         electrons   133.581269601226     
 augmentation electrons   4.45989718217296     
 soft         electrons   133.581269601226     
 augmentation electrons   4.45989718217296     
 soft         electrons   133.581269601226     
 total        electrons   138.041166783399     
 augmentation electrons   4.45989718217296     
 soft         electrons   133.581269601226     
 augmentation electrons   4.45989718217296     
 soft         electrons   133.581269601226     
 augmentation electrons   4.45989718217296     
 soft         electrons   133.581269601226     
 total        electrons   138.041166783399     
 augmentation electrons   4.45989718217296     
 soft         electrons   133.581269601226     
 augmentation electrons   4.45989718217296     
 soft         electrons   133.581269601226     
 augmentation electrons   4.45989718217296     
 soft         electrons   133.581269601226     
 total        electrons   138.041166783399     
 augmentation electrons   4.45989718217296     
 soft         electrons   133.581269601226     
 augmentation electrons   4.45989718217296     
 soft         electrons   133.581269601226     
 augmentation electrons   4.45989718217296     
 soft         electrons   133.581269601226     
 total        electrons   138.041166783399     
 augmentation electrons   4.45989718217296     
 soft         electrons   133.581269601226     
 augmentation electrons   4.45989718217296     
 soft         electrons   133.581269601226     
 augmentation electrons   4.45989718217296     
 soft         electrons   133.581269601226     
 total        electrons   138.041166783399     
 augmentation electrons   4.45989718217296     
 soft         electrons   133.581269601226     
 augmentation electrons   4.45989718217296     
 soft         electrons   133.581269601226     
 augmentation electrons   4.45989718217296     
 soft         electrons   133.581269601226     
 total        electrons   138.041166783399     
 augmentation electrons   4.45989718217296     
 soft         electrons   133.581269601226     
 augmentation electrons   4.45989718217296     
 soft         electrons   133.581269601226     
 augmentation electrons   4.45989718217296     
 soft         electrons   133.581269601226     
 total        electrons   138.041166783399     
 augmentation electrons   4.45989718217296     
 soft         electrons   133.581269601226     
 augmentation electrons   4.45989718217296     
 soft         electrons   133.581269601226     
 augmentation electrons   4.45989718217296     
 soft         electrons   133.581269601226     
 total        electrons   138.041166783399     
 augmentation electrons   4.45989718217296     
 soft         electrons   133.581269601226     
 augmentation electrons   4.45989718217296     
 soft         electrons   133.581269601226     
 total        electrons   138.041166783399     
 augmentation electrons   4.45989718217296     
 soft         electrons   133.581269601226     
 augmentation electrons   4.45989718217296     
 soft         electrons   133.581269601226     
 total        electrons   138.041166783399     
 augmentation electrons   4.45989718217296     
 soft         electrons   133.581269601226     
 augmentation electrons   4.45989718217296     
 soft         electrons   133.581269601226     
 total        electrons   138.041166783399     
 augmentation electrons   4.45989718217296     
 soft         electrons   133.581269601226     
 augmentation electrons   4.45989718217296     
 augmentation electrons   4.45989718217296     
 soft         electrons   133.581269601226     
 augmentation electrons   4.45989718217296     
 soft         electrons   133.581269601226     
 augmentation electrons   4.45989718217296     
 soft         electrons   133.581269601226     
 soft         electrons   133.581269601226     
 augmentation electrons   4.45989718217296     
 soft         electrons   133.581269601226     
 total        electrons   138.041166783399     
 augmentation electrons   4.45989718217296     
 soft         electrons   133.581269601226     
 total        electrons   138.041166783399     
 augmentation electrons   4.45989718217296     
 soft         electrons   133.581269601226     
 total        electrons   138.041166783399     
 soft         electrons   133.581269601226     
 total        electrons   138.041166783399     
 total        electrons   138.041166783399     
 total        electrons   138.041166783399     
 total        electrons   138.041166783399     
 total        electrons   138.041166783399     
 total        electrons   138.041166783399     
 total        electrons   138.041166783399     
 total        electrons   138.041166783399     
 total        electrons   138.041166783399     
 total        electrons   138.041166783399     
 total        electrons   138.041166783399     
 total        electrons   138.041166783399     
 total        electrons   138.041166783399     
 total        electrons   138.041166783399     
 total        electrons   138.041166783399     
 total        electrons   138.041166783399     
 total        electrons   138.041166783399     
 total        electrons   138.041166783399     
 total        electrons   138.041166783399     
 total        electrons   138.041166783399     
 total        electrons   138.041166783399     
 total        electrons   138.041166783399     
 total        electrons   138.041166783399     
 total        electrons   138.041166783399     
 total        electrons   138.041166783399     
 total        electrons   138.041166783399     
 total        electrons   138.041166783399     
 total        electrons   138.041166783399     
 total        electrons   138.041166783399     
 total        electrons   138.041166783399     
 total        electrons   138.041166783399     
 total        electrons   138.041166783399     
 total        electrons   138.041166783399     
 total        electrons   138.041166783399     
 total        electrons   138.041166783399     
 total        electrons   138.041166783399     
 total        electrons   138.041166783399     
 total        electrons   138.041166783399     
 total        electrons   138.041166783399     
 total        electrons   138.041166783399     
 total        electrons   138.041166783399     
 total        electrons   138.041166783399     
 total        electrons   138.041166783399     
 total        electrons   138.041166783399     
 total        electrons   138.041166783399     
 total        electrons   138.041166783399     
 total        electrons   138.041166783399     
 total        electrons   138.041166783399     
 total        electrons   138.041166783399     
