<?xml version="1.0" encoding="ISO-8859-1"?>
<modeling>
 <generator>
  <i name="program" type="string">vasp </i>
  <i name="version" type="string">5.4.4.18Apr17-6-g9f103f2a35  </i>
  <i name="subversion" type="string">(build Jun 08 2018 12:06:12) complex            parallel </i>
  <i name="platform" type="string">LinuxIFC </i>
  <i name="date" type="string">2019 06 06 </i>
  <i name="time" type="string">06:39:28 </i>
 </generator>
 <incar>
  <i type="string" name="SYSTEM"> Mg_slab_in_a_box</i>
  <i type="string" name="PREC">accurate</i>
  <i type="string" name="ALGO"> V</i>
  <i type="int" name="NELM">   300</i>
  <i type="int" name="NELMIN">     6</i>
  <i name="EDIFF">      0.00000500</i>
  <i name="ENCUT">    520.00000000</i>
  <i type="string" name="LREAL"> AUTO</i>
  <i type="logical" name="LPLANE"> T  </i>
  <i type="int" name="ISMEAR">    -5</i>
  <i type="logical" name="LWAVE"> F  </i>
  <i type="logical" name="LCHARG"> T  </i>
  <i type="logical" name="LVTOT"> T  </i>
  <i type="logical" name="LVHAR"> T  </i>
  <i type="logical" name="LSCALU"> F  </i>
  <i type="logical" name="LASPH"> T  </i>
  <i type="logical" name="LAECHG"> T  </i>
  <v type="int" name="KPOINT_BSE">    -1     0     0     0</v>
  <i type="int" name="NELM">   300</i>
  <i type="string" name="GGA"> BO</i>
  <i name="PARAM1">      0.18333333</i>
  <i name="PARAM2">      0.22000000</i>
  <i type="logical" name="LUSE_VDW"> T  </i>
  <i name="AGGAC">      0.00000000</i>
  <i type="logical" name="LDIPOL"> T  </i>
  <i type="int" name="IDIPOL">     3</i>
  <i type="logical" name="LASPH"> T  </i>
 </incar>
 <structure name="primitive_cell" >
  <crystal>
   <varray name="basis" >
    <v>       9.55575275       0.00000000       0.00000000 </v>
    <v>      -4.77787638       8.27552464       0.00000000 </v>
    <v>       0.00000000       0.00000000      32.62509537 </v>
   </varray>
   <i name="volume">   2579.95558872 </i>
   <varray name="rec_basis" >
    <v>       0.10464900       0.06041913       0.00000000 </v>
    <v>       0.00000000       0.12083826       0.00000000 </v>
    <v>       0.00000000       0.00000000       0.03065125 </v>
   </varray>
  </crystal>
  <varray name="positions" >
   <v>       0.00000000       0.00000000       0.00000000 </v>
   <v>       0.00000002      -0.33333328       0.00000000 </v>
   <v>      -0.33333330      -0.33333328       0.00000000 </v>
   <v>      -0.33333332       0.00000000       0.00000000 </v>
   <v>       0.33333334       0.00000000       0.00000000 </v>
   <v>       0.00000001       0.33333336       0.00000000 </v>
   <v>       0.33333335       0.33333336       0.00000000 </v>
   <v>      -0.22222216      -0.11111106       0.07982145 </v>
   <v>       0.11111116      -0.11111106       0.07982145 </v>
   <v>       0.11111113       0.22222222       0.07982145 </v>
   <v>      -0.22222219      -0.44444439       0.07982145 </v>
   <v>      -0.22222221       0.22222222       0.07982145 </v>
   <v>       0.44444450       0.22222222       0.07982145 </v>
   <v>      -0.00145299       0.00000188       0.15773385 </v>
   <v>       0.33333336      -0.33333328       0.00000000 </v>
   <v>      -0.33333332       0.33333336       0.00000000 </v>
   <v>       0.44444450      -0.44444439       0.07982145 </v>
   <v>       0.44444451      -0.11111106       0.07982145 </v>
   <v>       0.11111114      -0.44444439       0.07982145 </v>
   <v>       0.33198882       0.33251202       0.15711809 </v>
   <v>       0.33308517      -0.00003447       0.15706037 </v>
   <v>      -0.00150032      -0.33465483       0.15704836 </v>
   <v>      -0.33452286      -0.00066412       0.15711759 </v>
   <v>      -0.00059720       0.33322550       0.15726947 </v>
   <v>      -0.33385465      -0.33347799       0.15725730 </v>
   <v>       0.33191014      -0.33342069       0.15777487 </v>
   <v>      -0.33458483       0.33309807       0.15792035 </v>
   <v>       0.10642347      -0.11244177       0.23376042 </v>
   <v>      -0.22056481      -0.10846992       0.23548770 </v>
   <v>       0.10915609       0.21812082       0.23578691 </v>
   <v>      -0.22659620       0.22183634       0.23474085 </v>
   <v>       0.44594726       0.22641444       0.23548633 </v>
   <v>      -0.22470270      -0.44840828       0.23562870 </v>
   <v>       0.43922440      -0.44540561       0.23439317 </v>
   <v>       0.11296155      -0.44144171       0.23565280 </v>
   <v>       0.44255692      -0.11526206       0.23534775 </v>
   <v>       0.32734926       0.00047937       0.30836414 </v>
   <v>      -0.34073027      -0.33327051       0.30949126 </v>
   <v>      -0.00317658       0.33400576       0.31013743 </v>
   <v>      -0.00310395      -0.33034663       0.31258421 </v>
   <v>      -0.33708348      -0.00014165       0.31293339 </v>
   <v>      -0.00678036      -0.00258048       0.32866760 </v>
   <v>       0.32808141       0.33638513       0.31416206 </v>
   <v>      -0.34008174       0.32966338       0.32596122 </v>
   <v>       0.32617995      -0.33287212       0.33064070 </v>
   <v>       0.24029793      -0.04737007       0.38174360 </v>
   <v>      -0.13612770       0.21185767       0.38160579 </v>
   <v>      -0.03032588      -0.01648697       0.39594858 </v>
   <v>      -0.43009014      -0.40022720       0.38548829 </v>
   <v>      -0.04878125       0.06801277       0.40806807 </v>
   <v>       0.06193140      -0.01387474       0.41030827 </v>
   <v>      -0.26619431      -0.27703582       0.40535087 </v>
   <v>       0.25775062      -0.04233797       0.41215682 </v>
   <v>      -0.10762383       0.23811820       0.41131819 </v>
   <v>      -0.00447690       0.34032192       0.41004594 </v>
   <v>      -0.36293596      -0.38274486       0.41028844 </v>
   <v>      -0.34653969       0.33912366       0.39149989 </v>
   <v>       0.30255665      -0.31314442       0.39655255 </v>
   <v>       0.29067739      -0.22084398       0.40618354 </v>
   <v>      -0.33826748       0.44078322       0.40221123 </v>
   <v>       0.36003904       0.05940928       0.41568867 </v>
   <v>      -0.26745994       0.31937255       0.40597667 </v>
   <v>       0.37952949      -0.32048706       0.41491570 </v>
  </varray>
 </structure>
 <varray name="primitive_index" >
  <v type="int" >        1 </v>
  <v type="int" >        7 </v>
  <v type="int" >       25 </v>
  <v type="int" >       19 </v>
  <v type="int" >       10 </v>
  <v type="int" >        4 </v>
  <v type="int" >       13 </v>
  <v type="int" >       44 </v>
  <v type="int" >       32 </v>
  <v type="int" >       28 </v>
  <v type="int" >       42 </v>
  <v type="int" >       40 </v>
  <v type="int" >       34 </v>
  <v type="int" >        2 </v>
  <v type="int" >       16 </v>
  <v type="int" >       22 </v>
  <v type="int" >       36 </v>
  <v type="int" >       38 </v>
  <v type="int" >       30 </v>
  <v type="int" >       14 </v>
  <v type="int" >       11 </v>
  <v type="int" >        8 </v>
  <v type="int" >       20 </v>
  <v type="int" >        5 </v>
  <v type="int" >       26 </v>
  <v type="int" >       17 </v>
  <v type="int" >       23 </v>
  <v type="int" >       33 </v>
  <v type="int" >       45 </v>
  <v type="int" >       29 </v>
  <v type="int" >       41 </v>
  <v type="int" >       35 </v>
  <v type="int" >       43 </v>
  <v type="int" >       37 </v>
  <v type="int" >       31 </v>
  <v type="int" >       39 </v>
  <v type="int" >       12 </v>
  <v type="int" >       27 </v>
  <v type="int" >        6 </v>
  <v type="int" >        9 </v>
  <v type="int" >       21 </v>
  <v type="int" >        3 </v>
  <v type="int" >       15 </v>
  <v type="int" >       24 </v>
  <v type="int" >       18 </v>
  <v type="int" >       55 </v>
  <v type="int" >       57 </v>
  <v type="int" >       46 </v>
  <v type="int" >       61 </v>
  <v type="int" >       52 </v>
  <v type="int" >       53 </v>
  <v type="int" >       60 </v>
  <v type="int" >       47 </v>
  <v type="int" >       48 </v>
  <v type="int" >       56 </v>
  <v type="int" >       50 </v>
  <v type="int" >       49 </v>
  <v type="int" >       51 </v>
  <v type="int" >       62 </v>
  <v type="int" >       58 </v>
  <v type="int" >       54 </v>
  <v type="int" >       59 </v>
  <v type="int" >       63 </v>
 </varray>
 <kpoints>
  <generation param="Gamma">
   <v type="int" name="divisions">       3        3        1 </v>
   <v name="usershift">      0.00000000       0.00000000       0.00000000 </v>
   <v name="genvec1">      0.33333333       0.00000000       0.00000000 </v>
   <v name="genvec2">      0.00000000       0.33333333       0.00000000 </v>
   <v name="genvec3">      0.00000000       0.00000000       1.00000000 </v>
   <v name="shift">      0.00000000       0.00000000       0.00000000 </v>
  </generation>
  <varray name="kpointlist" >
   <v>       0.00000000       0.00000000       0.00000000 </v>
   <v>       0.33333333      -0.00000000       0.00000000 </v>
   <v>       0.00000000       0.33333333       0.00000000 </v>
   <v>       0.33333333       0.33333333       0.00000000 </v>
   <v>      -0.33333333       0.33333333       0.00000000 </v>
  </varray>
  <varray name="weights" >
   <v>       0.11111111 </v>
   <v>       0.22222222 </v>
   <v>       0.22222222 </v>
   <v>       0.22222222 </v>
   <v>       0.22222222 </v>
  </varray>
  <varray name="tetrahedronlist"  type="int" >
   <v type="int" >        2        2        3        3        4 </v>
   <v type="int" >        2        1        2        3        3 </v>
   <v type="int" >        2        1        1        2        3 </v>
   <v type="int" >        2        2        3        4        4 </v>
   <v type="int" >        2        2        2        3        4 </v>
   <v type="int" >        2        1        2        2        3 </v>
   <v type="int" >        2        2        4        4        5 </v>
   <v type="int" >        2        2        2        4        4 </v>
   <v type="int" >        4        2        2        2        4 </v>
   <v type="int" >        2        2        4        5        5 </v>
   <v type="int" >        2        2        2        4        5 </v>
   <v type="int" >        2        1        3        5        5 </v>
   <v type="int" >        2        1        2        5        5 </v>
   <v type="int" >        2        1        2        2        5 </v>
   <v type="int" >        2        1        3        3        5 </v>
   <v type="int" >        2        1        1        3        5 </v>
   <v type="int" >        2        1        1        2        5 </v>
   <v type="int" >        2        3        3        4        5 </v>
   <v type="int" >        4        3        3        3        4 </v>
   <v type="int" >        2        3        4        5        5 </v>
   <v type="int" >        2        3        4        4        5 </v>
   <v type="int" >        2        3        3        4        4 </v>
   <v type="int" >        4        4        5        5        5 </v>
   <v type="int" >        2        4        4        5        5 </v>
  </varray>
  <i name="volumeweight">      0.01851852 </i>
 </kpoints>
 <parameters>
  <separator name="general" >
   <i type="string" name="SYSTEM">Mg_slab_in_a_box</i>
   <i type="logical" name="LCOMPAT"> F  </i>
  </separator>
  <separator name="electronic" >
   <i type="string" name="PREC">accura</i>
   <i name="ENMAX">    520.00000000</i>
   <i name="ENAUG">    605.39200000</i>
   <i name="EDIFF">      0.00000500</i>
   <i type="int" name="IALGO">    48</i>
   <i type="int" name="IWAVPR">    10</i>
   <i type="int" name="NBANDS">   102</i>
   <i name="NELECT">    138.00000000</i>
   <i type="int" name="TURBO">     0</i>
   <i type="int" name="IRESTART">     0</i>
   <i type="int" name="NREBOOT">     0</i>
   <i type="int" name="NMIN">     0</i>
   <i name="EREF">      0.00000000</i>
   <separator name="electronic smearing" >
    <i type="int" name="ISMEAR">    -5</i>
    <i name="SIGMA">      0.20000000</i>
    <i name="KSPACING">      0.50000000</i>
    <i type="logical" name="KGAMMA"> T  </i>
   </separator>
   <separator name="electronic projectors" >
    <i type="logical" name="LREAL"> T  </i>
    <v name="ROPT">     -0.00025000     -0.00025000     -0.00025000</v>
    <i type="int" name="LMAXPAW">  -100</i>
    <i type="int" name="LMAXMIX">     2</i>
    <i type="logical" name="NLSPLINE"> F  </i>
   </separator>
   <separator name="electronic startup" >
    <i type="int" name="ISTART">     0</i>
    <i type="int" name="ICHARG">     2</i>
    <i type="int" name="INIWAV">     1</i>
   </separator>
   <separator name="electronic spin" >
    <i type="int" name="ISPIN">     1</i>
    <i type="logical" name="LNONCOLLINEAR"> F  </i>
    <v name="MAGMOM">      1.00000000      1.00000000      1.00000000      1.00000000      1.00000000      1.00000000      1.00000000      1.00000000      1.00000000      1.00000000      1.00000000      1.00000000      1.00000000      1.00000000      1.00000000      1.00000000      1.00000000      1.00000000      1.00000000      1.00000000
      1.00000000      1.00000000      1.00000000      1.00000000      1.00000000      1.00000000      1.00000000      1.00000000      1.00000000      1.00000000      1.00000000      1.00000000      1.00000000      1.00000000      1.00000000      1.00000000      1.00000000      1.00000000      1.00000000      1.00000000
      1.00000000      1.00000000      1.00000000      1.00000000      1.00000000      1.00000000      1.00000000      1.00000000      1.00000000      1.00000000      1.00000000      1.00000000      1.00000000      1.00000000      1.00000000      1.00000000      1.00000000      1.00000000      1.00000000      1.00000000
      1.00000000      1.00000000      1.00000000</v>
    <i name="NUPDOWN">     -1.00000000</i>
    <i type="logical" name="LSORBIT"> F  </i>
    <v name="SAXIS">      0.00000000      0.00000000      1.00000000</v>
    <i type="logical" name="LSPIRAL"> F  </i>
    <v name="QSPIRAL">      0.00000000      0.00000000      0.00000000</v>
    <i type="logical" name="LZEROZ"> F  </i>
   </separator>
   <separator name="electronic exchange-correlation" >
    <i type="logical" name="LASPH"> T  </i>
    <i type="logical" name="LMETAGGA"> F  </i>
   </separator>
   <separator name="electronic convergence" >
    <i type="int" name="NELM">   300</i>
    <i type="int" name="NELMDL">   -12</i>
    <i type="int" name="NELMIN">     6</i>
    <i name="ENINI">    520.00000000</i>
    <separator name="electronic convergence detail" >
     <i type="logical" name="LDIAG"> T  </i>
     <i type="logical" name="LSUBROT"> F  </i>
     <i name="WEIMIN">      0.00000000</i>
     <i name="EBREAK">      0.00000001</i>
     <i name="DEPER">      0.30000000</i>
     <i type="int" name="NRMM">     4</i>
     <i name="TIME">      0.40000000</i>
    </separator>
   </separator>
   <separator name="electronic mixer" >
    <i name="AMIX">      0.40000000</i>
    <i name="BMIX">      1.00000000</i>
    <i name="AMIN">      0.10000000</i>
    <i name="AMIX_MAG">      1.60000000</i>
    <i name="BMIX_MAG">      1.00000000</i>
    <separator name="electronic mixer details" >
     <i type="int" name="IMIX">     4</i>
     <i type="logical" name="MIXFIRST"> F  </i>
     <i type="int" name="MAXMIX">   -45</i>
     <i name="WC">    100.00000000</i>
     <i type="int" name="INIMIX">     1</i>
     <i type="int" name="MIXPRE">     1</i>
     <i type="int" name="MREMOVE">     5</i>
    </separator>
   </separator>
   <separator name="electronic dipolcorrection" >
    <i type="logical" name="LDIPOL"> T  </i>
    <i type="logical" name="LMONO"> F  </i>
    <i type="int" name="IDIPOL">     3</i>
    <i name="EPSILON">      1.00000000</i>
    <v name="DIPOL">   -100.00000000   -100.00000000   -100.00000000</v>
    <i name="EFIELD">      0.00000000</i>
   </separator>
  </separator>
  <separator name="grids" >
   <i type="int" name="NGX">    72</i>
   <i type="int" name="NGY">    72</i>
   <i type="int" name="NGZ">   250</i>
   <i type="int" name="NGXF">   144</i>
   <i type="int" name="NGYF">   144</i>
   <i type="int" name="NGZF">   500</i>
   <i type="logical" name="ADDGRID"> F  </i>
  </separator>
  <separator name="ionic" >
   <i type="int" name="NSW">     0</i>
   <i type="int" name="IBRION">    -1</i>
   <i type="int" name="MDALGO">     0</i>
   <i type="int" name="ISIF">     2</i>
   <i name="PSTRESS">      0.00000000</i>
   <i name="EDIFFG">      0.00005000</i>
   <i type="int" name="NFREE">     0</i>
   <i name="POTIM">      0.50000000</i>
   <i name="SMASS">     -3.00000000</i>
   <i name="SCALEE">      1.00000000</i>
  </separator>
  <separator name="ionic md" >
   <i name="TEBEG">      0.00010000</i>
   <i name="TEEND">      0.00010000</i>
   <i type="int" name="NBLOCK">     1</i>
   <i type="int" name="KBLOCK">     1</i>
   <i type="int" name="NPACO">   256</i>
   <i name="APACO">     16.00000000</i>
  </separator>
  <separator name="symmetry" >
   <i type="int" name="ISYM">     2</i>
   <i name="SYMPREC">      0.00001000</i>
  </separator>
  <separator name="dos" >
   <i type="int" name="LORBIT">     0</i>
   <v name="RWIGS">     -1.00000000     -1.00000000     -1.00000000</v>
   <i type="int" name="NEDOS">   301</i>
   <i name="EMIN">     10.00000000</i>
   <i name="EMAX">    -10.00000000</i>
   <i name="EFERMI">      0.00000000</i>
  </separator>
  <separator name="writing" >
   <i type="int" name="NWRITE">     2</i>
   <i type="logical" name="LWAVE"> F  </i>
   <i type="logical" name="LDOWNSAMPLE"> F  </i>
   <i type="logical" name="LCHARG"> T  </i>
   <i type="logical" name="LPARD"> F  </i>
   <i type="logical" name="LVTOT"> F  </i>
   <i type="logical" name="LVHAR"> T  </i>
   <i type="logical" name="LELF"> F  </i>
   <i type="logical" name="LOPTICS"> F  </i>
   <v name="STM">      0.00000000      0.00000000      0.00000000      0.00000000      0.00000000      0.00000000      0.00000000</v>
  </separator>
  <separator name="performance" >
   <i type="int" name="NPAR">     3</i>
   <i type="int" name="NSIM">     4</i>
   <i type="int" name="NBLK">    -1</i>
   <i type="logical" name="LPLANE"> T  </i>
   <i type="logical" name="LSCALAPACK"> T  </i>
   <i type="logical" name="LSCAAWARE"> F  </i>
   <i type="logical" name="LSCALU"> F  </i>
   <i type="logical" name="LASYNC"> F  </i>
   <i type="logical" name="LORBITALREAL"> F  </i>
  </separator>
  <separator name="miscellaneous" >
   <i type="int" name="IDIOT">     3</i>
   <i type="int" name="ISPECIAL">     0</i>
   <i type="logical" name="LMUSIC"> F  </i>
   <v name="POMASS">     24.30500000     16.00000000      1.00000000</v>
   <v name="DARWINR">      0.00000000      0.00000000      0.00000000</v>
   <v name="DARWINV">      1.00000000      1.00000000      1.00000000</v>
   <i type="logical" name="LCORR"> T  </i>
  </separator>
  <i type="logical" name="GGA_COMPAT"> T  </i>
  <i type="logical" name="LBERRY"> F  </i>
  <i type="int" name="ICORELEVEL">     0</i>
  <i type="logical" name="LDAU"> F  </i>
  <i type="int" name="I_CONSTRAINED_M">     0</i>
  <separator name="electronic exchange-correlation" >
   <i type="string" name="GGA">BO</i>
   <i type="int" name="VOSKOWN">     0</i>
   <i type="logical" name="LHFCALC"> F  </i>
   <i type="string" name="PRECFOCK"></i>
   <i type="logical" name="LSYMGRAD"> F  </i>
   <i type="logical" name="LHFONE"> F  </i>
   <i type="logical" name="LRHFCALC"> F  </i>
   <i type="logical" name="LTHOMAS"> F  </i>
   <i type="logical" name="LMODELHF"> F  </i>
   <i name="ENCUT4O">     -1.00000000</i>
   <i type="int" name="EXXOEP">     0</i>
   <i type="int" name="FOURORBIT">     0</i>
   <i name="AEXX">      0.00000000</i>
   <i name="HFALPHA">      0.00000000</i>
   <i name="MCALPHA">      0.00000000</i>
   <i name="ALDAX">      1.00000000</i>
   <i name="AGGAX">      1.00000000</i>
   <i name="ALDAC">      1.00000000</i>
   <i name="AGGAC">      0.00000000</i>
   <i type="int" name="NKREDX">     1</i>
   <i type="int" name="NKREDY">     1</i>
   <i type="int" name="NKREDZ">     1</i>
   <i type="logical" name="SHIFTRED"> F  </i>
   <i type="logical" name="ODDONLY"> F  </i>
   <i type="logical" name="EVENONLY"> F  </i>
   <i type="int" name="LMAXFOCK">     0</i>
   <i type="int" name="NMAXFOCKAE">     0</i>
   <i type="logical" name="LFOCKAEDFT"> F  </i>
   <i name="HFSCREEN">      0.00000000</i>
   <i name="HFSCREENC">      0.00000000</i>
   <i type="int" name="NBANDSGWLOW">     0</i>
  </separator>
  <separator name="vdW DFT" >
   <i type="logical" name="LUSE_VDW"> T  </i>
   <i name="Zab_VDW">     -0.84910000</i>
   <i name="PARAM1">      0.18333333</i>
   <i name="PARAM2">      0.22000000</i>
   <i name="PARAM3">      0.00000000</i>
  </separator>
  <separator name="model GW" >
   <i type="int" name="MODEL_GW">     0</i>
   <i name="MODEL_EPS0">     24.57100561</i>
   <i name="MODEL_ALPHA">      1.00000000</i>
  </separator>
  <separator name="linear response parameters" >
   <i type="logical" name="LEPSILON"> F  </i>
   <i type="logical" name="LRPA"> F  </i>
   <i type="logical" name="LNABLA"> F  </i>
   <i type="logical" name="LVEL"> F  </i>
   <i type="int" name="KINTER">     0</i>
   <i name="CSHIFT">      0.10000000</i>
   <i name="OMEGAMAX">     -1.00000000</i>
   <i name="DEG_THRESHOLD">      0.00200000</i>
   <i name="RTIME">     -0.10000000</i>
   <i name="WPLASMAI">      0.00000000</i>
   <v name="DFIELD">      0.00000000      0.00000000      0.00000000</v>
   <v name="WPLASMA">      0.00000000      0.00000000      0.00000000      0.00000000      0.00000000      0.00000000      0.00000000      0.00000000      0.00000000</v>
  </separator>
  <separator name="orbital magnetization" >
   <i type="logical" name="NUCIND"> F  </i>
   <v name="MAGPOS">      0.00000000      0.00000000      0.00000000</v>
   <i type="logical" name="LNICSALL"> T  </i>
   <i type="logical" name="ORBITALMAG"> F  </i>
   <i type="logical" name="LMAGBLOCH"> F  </i>
   <i type="logical" name="LCHIMAG"> F  </i>
   <i type="logical" name="LGAUGE"> T  </i>
   <i type="int" name="MAGATOM">     0</i>
   <v name="MAGDIPOL">      0.00000000      0.00000000      0.00000000</v>
   <v name="AVECCONST">      0.00000000      0.00000000      0.00000000</v>
  </separator>
  <separator name="response functions" >
   <i type="logical" name="LADDER"> F  </i>
   <i type="logical" name="LRPAFORCE"> F  </i>
   <i type="logical" name="LFXC"> F  </i>
   <i type="logical" name="LHARTREE"> T  </i>
   <i type="int" name="IBSE">     0</i>
   <v type="int" name="KPOINT">    -1     0     0     0</v>
   <i type="logical" name="LTCTE"> F  </i>
   <i type="logical" name="LTETE"> F  </i>
   <i type="logical" name="LTRIPLET"> F  </i>
   <i type="logical" name="LFXCEPS"> F  </i>
   <i type="logical" name="LFXHEG"> F  </i>
   <i type="int" name="NATURALO">     2</i>
   <i type="logical" name="L2ORDER"> F  </i>
   <i type="logical" name="LMP2LT"> F  </i>
   <i type="logical" name="LUSEW"> F  </i>
   <i name="ENCUTGW">     -2.00000000</i>
   <i name="ENCUTGWSOFT">     -2.00000000</i>
   <i name="ENCUTLF">     -1.00000000</i>
   <i type="int" name="LMAXMP2">    -1</i>
   <i name="SCISSOR">      0.00000000</i>
   <i type="int" name="NOMEGA">     0</i>
   <i type="int" name="NOMEGAR">     0</i>
   <i type="int" name="NBANDSGW">    -1</i>
   <i type="int" name="NBANDSO">    -1</i>
   <i type="int" name="NBANDSV">    -1</i>
   <i type="int" name="NELM">   300</i>
   <i type="int" name="NELMHF">     1</i>
   <i type="int" name="DIM">     3</i>
   <i type="int" name="ANTIRES">     0</i>
   <i name="OMEGAMAX">    -30.00000000</i>
   <i name="OMEGAMIN">    -30.00000000</i>
   <i name="OMEGATL">   -200.00000000</i>
   <i type="int" name="OMEGAGRID">   140</i>
   <i name="CSHIFT">     -0.10000000</i>
   <i type="logical" name="SELFENERGY"> F  </i>
   <i type="logical" name="LSPECTRAL"> F  </i>
   <i type="logical" name="LSPECTRALGW"> F  </i>
   <i type="logical" name="LSINGLES"> F  </i>
   <i type="logical" name="LFERMIGW"> F  </i>
   <i type="logical" name="ODDONLYGW"> F  </i>
   <i type="logical" name="EVENONLYGW"> F  </i>
   <i type="int" name="NKREDLFX">     1</i>
   <i type="int" name="NKREDLFY">     1</i>
   <i type="int" name="NKREDLFZ">     1</i>
   <i type="int" name="MAXMEM">  2800</i>
   <i type="int" name="TELESCOPE">     0</i>
   <i type="int" name="TAUPAR">     1</i>
   <i type="int" name="OMEGAPAR">    -1</i>
   <i name="LAMBDA">      1.00000000</i>
  </separator>
  <separator name="External order field" >
   <i name="OFIELD_KAPPA">      0.00000000</i>
   <v name="OFIELD_K">      0.00000000      0.00000000      0.00000000</v>
   <i name="OFIELD_Q6_NEAR">      0.00000000</i>
   <i name="OFIELD_Q6_FAR">      0.00000000</i>
   <i name="OFIELD_A">      0.00000000</i>
  </separator>
 </parameters>
 <atominfo>
  <atoms>      63 </atoms>
  <types>       3 </types>
  <array name="atoms" >
   <dimension dim="1">ion</dimension>
   <field type="string">element</field>
   <field type="int">atomtype</field>
   <set>
    <rc><c>Mg</c><c>   1</c></rc>
    <rc><c>Mg</c><c>   1</c></rc>
    <rc><c>Mg</c><c>   1</c></rc>
    <rc><c>Mg</c><c>   1</c></rc>
    <rc><c>Mg</c><c>   1</c></rc>
    <rc><c>Mg</c><c>   1</c></rc>
    <rc><c>Mg</c><c>   1</c></rc>
    <rc><c>Mg</c><c>   1</c></rc>
    <rc><c>Mg</c><c>   1</c></rc>
    <rc><c>Mg</c><c>   1</c></rc>
    <rc><c>Mg</c><c>   1</c></rc>
    <rc><c>Mg</c><c>   1</c></rc>
    <rc><c>Mg</c><c>   1</c></rc>
    <rc><c>Mg</c><c>   1</c></rc>
    <rc><c>Mg</c><c>   1</c></rc>
    <rc><c>Mg</c><c>   1</c></rc>
    <rc><c>Mg</c><c>   1</c></rc>
    <rc><c>Mg</c><c>   1</c></rc>
    <rc><c>Mg</c><c>   1</c></rc>
    <rc><c>Mg</c><c>   1</c></rc>
    <rc><c>Mg</c><c>   1</c></rc>
    <rc><c>Mg</c><c>   1</c></rc>
    <rc><c>Mg</c><c>   1</c></rc>
    <rc><c>Mg</c><c>   1</c></rc>
    <rc><c>Mg</c><c>   1</c></rc>
    <rc><c>Mg</c><c>   1</c></rc>
    <rc><c>Mg</c><c>   1</c></rc>
    <rc><c>Mg</c><c>   1</c></rc>
    <rc><c>Mg</c><c>   1</c></rc>
    <rc><c>Mg</c><c>   1</c></rc>
    <rc><c>Mg</c><c>   1</c></rc>
    <rc><c>Mg</c><c>   1</c></rc>
    <rc><c>Mg</c><c>   1</c></rc>
    <rc><c>Mg</c><c>   1</c></rc>
    <rc><c>Mg</c><c>   1</c></rc>
    <rc><c>Mg</c><c>   1</c></rc>
    <rc><c>Mg</c><c>   1</c></rc>
    <rc><c>Mg</c><c>   1</c></rc>
    <rc><c>Mg</c><c>   1</c></rc>
    <rc><c>Mg</c><c>   1</c></rc>
    <rc><c>Mg</c><c>   1</c></rc>
    <rc><c>Mg</c><c>   1</c></rc>
    <rc><c>Mg</c><c>   1</c></rc>
    <rc><c>Mg</c><c>   1</c></rc>
    <rc><c>Mg</c><c>   1</c></rc>
    <rc><c>O </c><c>   2</c></rc>
    <rc><c>O </c><c>   2</c></rc>
    <rc><c>O </c><c>   2</c></rc>
    <rc><c>O </c><c>   2</c></rc>
    <rc><c>O </c><c>   2</c></rc>
    <rc><c>O </c><c>   2</c></rc>
    <rc><c>H </c><c>   3</c></rc>
    <rc><c>H </c><c>   3</c></rc>
    <rc><c>H </c><c>   3</c></rc>
    <rc><c>H </c><c>   3</c></rc>
    <rc><c>H </c><c>   3</c></rc>
    <rc><c>H </c><c>   3</c></rc>
    <rc><c>H </c><c>   3</c></rc>
    <rc><c>H </c><c>   3</c></rc>
    <rc><c>H </c><c>   3</c></rc>
    <rc><c>H </c><c>   3</c></rc>
    <rc><c>H </c><c>   3</c></rc>
    <rc><c>H </c><c>   3</c></rc>
   </set>
  </array>
  <array name="atomtypes" >
   <dimension dim="1">type</dimension>
   <field type="int">atomspertype</field>
   <field type="string">element</field>
   <field>mass</field>
   <field>valence</field>
   <field type="string">pseudopotential</field>
   <set>
    <rc><c>  45</c><c>Mg</c><c>     24.30500000</c><c>      2.00000000</c><c>  PAW_PBE Mg 13Apr2007                  </c></rc>
    <rc><c>   6</c><c>O </c><c>     16.00000000</c><c>      6.00000000</c><c>  PAW_PBE O 08Apr2002                   </c></rc>
    <rc><c>  12</c><c>H </c><c>      1.00000000</c><c>      1.00000000</c><c>  PAW_PBE H 15Jun2001                   </c></rc>
   </set>
  </array>
 </atominfo>
 <structure name="initialpos" >
  <crystal>
   <varray name="basis" >
    <v>       9.55575275       0.00000000       0.00000000 </v>
    <v>      -4.77787638       8.27552464       0.00000000 </v>
    <v>       0.00000000       0.00000000      32.62509537 </v>
   </varray>
   <i name="volume">   2579.95558872 </i>
   <varray name="rec_basis" >
    <v>       0.10464900       0.06041913       0.00000000 </v>
    <v>       0.00000000       0.12083826       0.00000000 </v>
    <v>       0.00000000       0.00000000       0.03065125 </v>
   </varray>
  </crystal>
  <varray name="positions" >
   <v>       0.00000000       0.00000000       0.00000000 </v>
   <v>       0.99854701       0.00000188       0.15773385 </v>
   <v>       0.99321964       0.99741952       0.32866760 </v>
   <v>       0.00000001       0.33333336       0.00000000 </v>
   <v>       0.99940280       0.33322550       0.15726947 </v>
   <v>       0.99682342       0.33400576       0.31013743 </v>
   <v>       0.00000002       0.66666672       0.00000000 </v>
   <v>       0.99849968       0.66534517       0.15704836 </v>
   <v>       0.99689605       0.66965337       0.31258421 </v>
   <v>       0.33333334       0.00000000       0.00000000 </v>
   <v>       0.33308517       0.99996553       0.15706037 </v>
   <v>       0.32734926       0.00047937       0.30836414 </v>
   <v>       0.33333335       0.33333336       0.00000000 </v>
   <v>       0.33198882       0.33251202       0.15711809 </v>
   <v>       0.32808141       0.33638513       0.31416206 </v>
   <v>       0.33333336       0.66666672       0.00000000 </v>
   <v>       0.33191014       0.66657931       0.15777487 </v>
   <v>       0.32617995       0.66712788       0.33064070 </v>
   <v>       0.66666668       0.00000000       0.00000000 </v>
   <v>       0.66547714       0.99933588       0.15711759 </v>
   <v>       0.66291652       0.99985835       0.31293339 </v>
   <v>       0.66666668       0.33333336       0.00000000 </v>
   <v>       0.66541517       0.33309807       0.15792035 </v>
   <v>       0.65991826       0.32966338       0.32596122 </v>
   <v>       0.66666670       0.66666672       0.00000000 </v>
   <v>       0.66614535       0.66652201       0.15725730 </v>
   <v>       0.65926973       0.66672949       0.30949126 </v>
   <v>       0.11111113       0.22222222       0.07982145 </v>
   <v>       0.10915609       0.21812082       0.23578691 </v>
   <v>       0.11111114       0.55555561       0.07982145 </v>
   <v>       0.11296155       0.55855829       0.23565280 </v>
   <v>       0.11111116       0.88888894       0.07982145 </v>
   <v>       0.10642347       0.88755823       0.23376042 </v>
   <v>       0.44444450       0.22222222       0.07982145 </v>
   <v>       0.44594726       0.22641444       0.23548633 </v>
   <v>       0.44444450       0.55555561       0.07982145 </v>
   <v>       0.43922440       0.55459439       0.23439317 </v>
   <v>       0.44444451       0.88888894       0.07982145 </v>
   <v>       0.44255692       0.88473794       0.23534775 </v>
   <v>       0.77777779       0.22222222       0.07982145 </v>
   <v>       0.77340380       0.22183634       0.23474085 </v>
   <v>       0.77777781       0.55555561       0.07982145 </v>
   <v>       0.77529730       0.55159172       0.23562870 </v>
   <v>       0.77777784       0.88888894       0.07982145 </v>
   <v>       0.77943519       0.89153008       0.23548770 </v>
   <v>       0.96967412       0.98351303       0.39594858 </v>
   <v>       0.25775062       0.95766203       0.41215682 </v>
   <v>       0.89237617       0.23811820       0.41131819 </v>
   <v>       0.65346031       0.33912366       0.39149989 </v>
   <v>       0.63706404       0.61725514       0.41028844 </v>
   <v>       0.30255665       0.68685558       0.39655255 </v>
   <v>       0.95121875       0.06801277       0.40806807 </v>
   <v>       0.06193140       0.98612526       0.41030827 </v>
   <v>       0.36003904       0.05940928       0.41568867 </v>
   <v>       0.24029793       0.95262993       0.38174360 </v>
   <v>       0.99552310       0.34032192       0.41004594 </v>
   <v>       0.86387230       0.21185767       0.38160579 </v>
   <v>       0.66173252       0.44078322       0.40221123 </v>
   <v>       0.73254006       0.31937255       0.40597667 </v>
   <v>       0.73380569       0.72296418       0.40535087 </v>
   <v>       0.56990986       0.59977280       0.38548829 </v>
   <v>       0.29067739       0.77915602       0.40618354 </v>
   <v>       0.37952949       0.67951294       0.41491570 </v>
  </varray>
  <varray name="selective"  type="logical" >
   <v type="logical" >  F  F  F </v>
   <v type="logical" >  T  T  T </v>
   <v type="logical" >  T  T  T </v>
   <v type="logical" >  F  F  F </v>
   <v type="logical" >  T  T  T </v>
   <v type="logical" >  T  T  T </v>
   <v type="logical" >  F  F  F </v>
   <v type="logical" >  T  T  T </v>
   <v type="logical" >  T  T  T </v>
   <v type="logical" >  F  F  F </v>
   <v type="logical" >  T  T  T </v>
   <v type="logical" >  T  T  T </v>
   <v type="logical" >  F  F  F </v>
   <v type="logical" >  T  T  T </v>
   <v type="logical" >  T  T  T </v>
   <v type="logical" >  F  F  F </v>
   <v type="logical" >  T  T  T </v>
   <v type="logical" >  T  T  T </v>
   <v type="logical" >  F  F  F </v>
   <v type="logical" >  T  T  T </v>
   <v type="logical" >  T  T  T </v>
   <v type="logical" >  F  F  F </v>
   <v type="logical" >  T  T  T </v>
   <v type="logical" >  T  T  T </v>
   <v type="logical" >  F  F  F </v>
   <v type="logical" >  T  T  T </v>
   <v type="logical" >  T  T  T </v>
   <v type="logical" >  F  F  F </v>
   <v type="logical" >  T  T  T </v>
   <v type="logical" >  F  F  F </v>
   <v type="logical" >  T  T  T </v>
   <v type="logical" >  F  F  F </v>
   <v type="logical" >  T  T  T </v>
   <v type="logical" >  F  F  F </v>
   <v type="logical" >  T  T  T </v>
   <v type="logical" >  F  F  F </v>
   <v type="logical" >  T  T  T </v>
   <v type="logical" >  F  F  F </v>
   <v type="logical" >  T  T  T </v>
   <v type="logical" >  F  F  F </v>
   <v type="logical" >  T  T  T </v>
   <v type="logical" >  F  F  F </v>
   <v type="logical" >  T  T  T </v>
   <v type="logical" >  F  F  F </v>
   <v type="logical" >  T  T  T </v>
   <v type="logical" >  T  T  T </v>
   <v type="logical" >  T  T  T </v>
   <v type="logical" >  T  T  T </v>
   <v type="logical" >  T  T  T </v>
   <v type="logical" >  T  T  T </v>
   <v type="logical" >  T  T  T </v>
   <v type="logical" >  T  T  T </v>
   <v type="logical" >  T  T  T </v>
   <v type="logical" >  T  T  T </v>
   <v type="logical" >  T  T  T </v>
   <v type="logical" >  T  T  T </v>
   <v type="logical" >  T  T  T </v>
   <v type="logical" >  T  T  T </v>
   <v type="logical" >  T  T  T </v>
   <v type="logical" >  T  T  T </v>
   <v type="logical" >  T  T  T </v>
   <v type="logical" >  T  T  T </v>
   <v type="logical" >  T  T  T </v>
  </varray>
  <nose>
   <v>      -3.00000000       0.00000000       0.00010000       0.00010000 </v>
  </nose>
 </structure>
 <calculation>
  <scstep>
   <time name="diag">    2.71    2.71</time>
   <time name="diis">    2.19    2.19</time>
   <time name="orth">    1.00    1.00</time>
   <time name="total">   15.80   15.91</time>
   <dipole>
    <v name="dipole">      0.00000000       0.00000000      -0.00040495 </v>
    <i name="Tr[quadrupol]">  -1847.72676103 </i>
    <i name="Echarged">      0.00000000 </i>
    <i name="Edipol_quadrupol">      0.00000000 </i>
    <i name="Eion">      0.00000000 </i>
   </dipole>
   <energy>
    <i name="alphaZ">     63.16554616 </i>
    <i name="ewald">  12673.17965950 </i>
    <i name="hartreedc"> -15897.84242466 </i>
    <i name="XCdc">  -2050.95403020 </i>
    <i name="pawpsdc">   5135.15659847 </i>
    <i name="pawaedc">  -2719.01140655 </i>
    <i name="eentropy">      0.00000000 </i>
    <i name="bandstr">    212.40478335 </i>
    <i name="atom">   3827.98814510 </i>
    <i name="e_fr_energy">   1244.08687117 </i>
    <i name="e_wo_entrp">   1244.08687117 </i>
    <i name="e_0_energy">   1244.08687117 </i>
   </energy>
  </scstep>
  <scstep>
   <time name="diag">    2.70    2.72</time>
   <time name="diis">    2.20    2.20</time>
   <time name="orth">    0.99    0.99</time>
   <time name="total">    5.89    5.92</time>
   <dipole>
    <v name="dipole">      0.00000000       0.00000000      -0.00040495 </v>
    <i name="Tr[quadrupol]">  -1847.72676103 </i>
    <i name="Echarged">      0.00000000 </i>
    <i name="Edipol_quadrupol">      0.00000000 </i>
    <i name="Eion">      0.00000000 </i>
   </dipole>
   <energy>
    <i name="e_fr_energy">    545.53493927 </i>
    <i name="e_wo_entrp">    545.53493927 </i>
    <i name="e_0_energy">    545.53493927 </i>
   </energy>
  </scstep>
  <scstep>
   <time name="diag">    2.73    2.75</time>
   <time name="diis">    2.21    2.21</time>
   <time name="orth">    0.98    0.98</time>
   <time name="total">    5.93    5.94</time>
   <dipole>
    <v name="dipole">      0.00000000       0.00000000      -0.00040495 </v>
    <i name="Tr[quadrupol]">  -1847.72676103 </i>
    <i name="Echarged">      0.00000000 </i>
    <i name="Edipol_quadrupol">      0.00000000 </i>
    <i name="Eion">      0.00000000 </i>
   </dipole>
   <energy>
    <i name="e_fr_energy">    311.02754649 </i>
    <i name="e_wo_entrp">    311.02754649 </i>
    <i name="e_0_energy">    311.02754649 </i>
   </energy>
  </scstep>
  <scstep>
   <time name="diag">    2.70    2.72</time>
   <time name="diis">    2.19    2.19</time>
   <time name="orth">    1.07    1.07</time>
   <time name="total">    5.97    5.99</time>
   <dipole>
    <v name="dipole">      0.00000000       0.00000000      -0.00040495 </v>
    <i name="Tr[quadrupol]">  -1847.72676103 </i>
    <i name="Echarged">      0.00000000 </i>
    <i name="Edipol_quadrupol">      0.00000000 </i>
    <i name="Eion">      0.00000000 </i>
   </dipole>
   <energy>
    <i name="e_fr_energy">    135.86340284 </i>
    <i name="e_wo_entrp">    135.86340284 </i>
    <i name="e_0_energy">    135.86340284 </i>
   </energy>
  </scstep>
  <scstep>
   <time name="diag">    2.67    2.70</time>
   <time name="diis">    2.20    2.20</time>
   <time name="orth">    1.00    1.00</time>
   <time name="total">    5.88    5.90</time>
   <dipole>
    <v name="dipole">      0.00000000       0.00000000      -0.00040495 </v>
    <i name="Tr[quadrupol]">  -1847.72676103 </i>
    <i name="Echarged">      0.00000000 </i>
    <i name="Edipol_quadrupol">      0.00000000 </i>
    <i name="Eion">      0.00000000 </i>
   </dipole>
   <energy>
    <i name="e_fr_energy">     19.18851533 </i>
    <i name="e_wo_entrp">     19.18851533 </i>
    <i name="e_0_energy">     19.18851533 </i>
   </energy>
  </scstep>
  <scstep>
   <time name="diag">    2.62    2.64</time>
   <time name="diis">    1.82    1.82</time>
   <time name="orth">    0.38    0.38</time>
   <time name="total">    4.82    4.84</time>
   <dipole>
    <v name="dipole">      0.00000000       0.00000000      -0.00040495 </v>
    <i name="Tr[quadrupol]">  -1847.72676103 </i>
    <i name="Echarged">      0.00000000 </i>
    <i name="Edipol_quadrupol">      0.00000000 </i>
    <i name="Eion">      0.00000000 </i>
   </dipole>
   <energy>
    <i name="e_fr_energy">    -44.43261142 </i>
    <i name="e_wo_entrp">    -44.43261142 </i>
    <i name="e_0_energy">    -44.43261142 </i>
   </energy>
  </scstep>
  <scstep>
   <time name="diag">    1.26    1.27</time>
   <time name="diis">    1.38    1.38</time>
   <time name="orth">    0.46    0.46</time>
   <time name="total">    3.11    3.13</time>
   <dipole>
    <v name="dipole">      0.00000000       0.00000000      -0.00040495 </v>
    <i name="Tr[quadrupol]">  -1847.72676103 </i>
    <i name="Echarged">      0.00000000 </i>
    <i name="Edipol_quadrupol">      0.00000000 </i>
    <i name="Eion">      0.00000000 </i>
   </dipole>
   <energy>
    <i name="e_fr_energy">    -69.38536424 </i>
    <i name="e_wo_entrp">    -69.38536424 </i>
    <i name="e_0_energy">    -69.38536424 </i>
   </energy>
  </scstep>
  <scstep>
   <time name="diag">    1.45    1.47</time>
   <time name="diis">    1.49    1.49</time>
   <time name="orth">    0.47    0.47</time>
   <time name="total">    3.41    3.44</time>
   <dipole>
    <v name="dipole">      0.00000000       0.00000000      -0.00040495 </v>
    <i name="Tr[quadrupol]">  -1847.72676103 </i>
    <i name="Echarged">      0.00000000 </i>
    <i name="Edipol_quadrupol">      0.00000000 </i>
    <i name="Eion">      0.00000000 </i>
   </dipole>
   <energy>
    <i name="e_fr_energy">    -75.86490757 </i>
    <i name="e_wo_entrp">    -75.86490757 </i>
    <i name="e_0_energy">    -75.86490757 </i>
   </energy>
  </scstep>
  <scstep>
   <time name="diag">    1.44    1.47</time>
   <time name="diis">    3.60    3.60</time>
   <time name="orth">    0.46    0.46</time>
   <time name="total">    5.52    5.54</time>
   <dipole>
    <v name="dipole">      0.00000000       0.00000000      -0.00040495 </v>
    <i name="Tr[quadrupol]">  -1847.72676103 </i>
    <i name="Echarged">      0.00000000 </i>
    <i name="Edipol_quadrupol">      0.00000000 </i>
    <i name="Eion">      0.00000000 </i>
   </dipole>
   <energy>
    <i name="e_fr_energy">    -78.01199095 </i>
    <i name="e_wo_entrp">    -78.01199095 </i>
    <i name="e_0_energy">    -78.01199095 </i>
   </energy>
  </scstep>
  <scstep>
   <time name="diag">    1.29    1.31</time>
   <time name="diis">    5.44    5.44</time>
   <time name="orth">    1.00    1.00</time>
   <time name="total">    7.73    7.76</time>
   <dipole>
    <v name="dipole">      0.00000000       0.00000000      -0.00040495 </v>
    <i name="Tr[quadrupol]">  -1847.72676103 </i>
    <i name="Echarged">      0.00000000 </i>
    <i name="Edipol_quadrupol">      0.00000000 </i>
    <i name="Eion">      0.00000000 </i>
   </dipole>
   <energy>
    <i name="e_fr_energy">    -78.31667758 </i>
    <i name="e_wo_entrp">    -78.31667758 </i>
    <i name="e_0_energy">    -78.31667758 </i>
   </energy>
  </scstep>
  <scstep>
   <time name="diag">    2.70    2.72</time>
   <time name="diis">    6.19    6.19</time>
   <time name="orth">    1.09    1.09</time>
   <time name="total">    9.99   10.02</time>
   <dipole>
    <v name="dipole">      0.00000000       0.00000000      -0.00040495 </v>
    <i name="Tr[quadrupol]">  -1847.72676103 </i>
    <i name="Echarged">      0.00000000 </i>
    <i name="Edipol_quadrupol">      0.00000000 </i>
    <i name="Eion">      0.00000000 </i>
   </dipole>
   <energy>
    <i name="e_fr_energy">    -78.31868475 </i>
    <i name="e_wo_entrp">    -78.31868475 </i>
    <i name="e_0_energy">    -78.31868475 </i>
   </energy>
  </scstep>
  <scstep>
   <time name="diag">    2.80    2.83</time>
   <time name="diis">    6.28    6.28</time>
   <time name="orth">    1.08    1.08</time>
   <time name="total">   10.68   10.71</time>
   <dipole>
    <v name="dipole">      0.00000000       0.00000000      -0.00040495 </v>
    <i name="Tr[quadrupol]">  -1847.72676103 </i>
    <i name="Echarged">      0.00000000 </i>
    <i name="Edipol_quadrupol">      0.00000000 </i>
    <i name="Eion">      0.00000000 </i>
   </dipole>
   <energy>
    <i name="e_fr_energy">    -78.32165478 </i>
    <i name="e_wo_entrp">    -78.32165478 </i>
    <i name="e_0_energy">    -78.32165478 </i>
   </energy>
  </scstep>
  <scstep>
   <time name="diag">    2.68    2.68</time>
   <time name="diis">    4.91    4.91</time>
   <time name="orth">    0.45    0.45</time>
   <time name="total">   18.04   18.06</time>
   <dipole>
    <v name="dipole">      0.00000000       0.00000000       0.27850745 </v>
    <i name="Tr[quadrupol]">  -1859.08796736 </i>
    <i name="Echarged">      0.00000000 </i>
    <i name="Edipol_quadrupol">      0.00000000 </i>
    <i name="Eion">      0.00000000 </i>
   </dipole>
   <energy>
    <i name="e_fr_energy">    -68.49293865 </i>
    <i name="e_wo_entrp">    -68.49293865 </i>
    <i name="e_0_energy">    -68.49293865 </i>
   </energy>
  </scstep>
  <scstep>
   <time name="diag">    1.45    1.45</time>
   <time name="diis">    3.75    3.75</time>
   <time name="orth">    0.48    0.48</time>
   <time name="total">   13.06   13.08</time>
   <dipole>
    <v name="dipole">      0.00000000       0.00000000      -1.29489644 </v>
    <i name="Tr[quadrupol]">  -1849.73908648 </i>
    <i name="Echarged">      0.00000000 </i>
    <i name="Edipol_quadrupol">      0.00000000 </i>
    <i name="Eion">      0.00000000 </i>
   </dipole>
   <energy>
    <i name="e_fr_energy">    -77.61915993 </i>
    <i name="e_wo_entrp">    -77.61915993 </i>
    <i name="e_0_energy">    -77.61915993 </i>
   </energy>
  </scstep>
  <scstep>
   <time name="diag">    2.51    2.51</time>
   <time name="diis">    5.15    5.15</time>
   <time name="orth">    1.00    1.01</time>
   <time name="total">   16.80   16.82</time>
   <dipole>
    <v name="dipole">      0.00000000       0.00000000       0.15599056 </v>
    <i name="Tr[quadrupol]">  -1858.78478889 </i>
    <i name="Echarged">      0.00000000 </i>
    <i name="Edipol_quadrupol">      0.00000000 </i>
    <i name="Eion">      0.00000000 </i>
   </dipole>
   <energy>
    <i name="e_fr_energy">    -68.47502915 </i>
    <i name="e_wo_entrp">    -68.47502915 </i>
    <i name="e_0_energy">    -68.47502915 </i>
   </energy>
  </scstep>
  <scstep>
   <time name="diag">    2.67    2.67</time>
   <time name="diis">    5.33    5.33</time>
   <time name="orth">    1.04    1.04</time>
   <time name="total">   19.19   19.21</time>
   <dipole>
    <v name="dipole">      0.00000000       0.00000000       0.00534071 </v>
    <i name="Tr[quadrupol]">  -1862.66792403 </i>
    <i name="Echarged">      0.00000000 </i>
    <i name="Edipol_quadrupol">      0.00000000 </i>
    <i name="Eion">      0.00000000 </i>
   </dipole>
   <energy>
    <i name="e_fr_energy">    -67.98844395 </i>
    <i name="e_wo_entrp">    -67.98844395 </i>
    <i name="e_0_energy">    -67.98844395 </i>
   </energy>
  </scstep>
  <scstep>
   <time name="diag">    2.50    2.50</time>
   <time name="diis">    3.21    3.21</time>
   <time name="orth">    0.38    0.38</time>
   <time name="total">   16.01   16.03</time>
   <dipole>
    <v name="dipole">      0.00000000       0.00000000      -0.31750961 </v>
    <i name="Tr[quadrupol]">  -1861.35322699 </i>
    <i name="Echarged">      0.00000000 </i>
    <i name="Edipol_quadrupol">      0.00000000 </i>
    <i name="Eion">      0.00000000 </i>
   </dipole>
   <energy>
    <i name="e_fr_energy">    -67.84371133 </i>
    <i name="e_wo_entrp">    -67.84371133 </i>
    <i name="e_0_energy">    -67.84371133 </i>
   </energy>
  </scstep>
  <scstep>
   <time name="diag">    1.44    1.44</time>
   <time name="diis">    3.89    3.89</time>
   <time name="orth">    0.36    0.36</time>
   <time name="total">   13.32   13.34</time>
   <dipole>
    <v name="dipole">      0.00000000       0.00000000      -0.35462628 </v>
    <i name="Tr[quadrupol]">  -1862.02017104 </i>
    <i name="Echarged">      0.00000000 </i>
    <i name="Edipol_quadrupol">      0.00000000 </i>
    <i name="Eion">      0.00000000 </i>
   </dipole>
   <energy>
    <i name="e_fr_energy">    -67.81958839 </i>
    <i name="e_wo_entrp">    -67.81958839 </i>
    <i name="e_0_energy">    -67.81958839 </i>
   </energy>
  </scstep>
  <scstep>
   <time name="diag">    2.72    2.72</time>
   <time name="diis">    4.88    4.88</time>
   <time name="orth">    1.07    1.07</time>
   <time name="total">   17.62   17.65</time>
   <dipole>
    <v name="dipole">      0.00000000       0.00000000      -0.36979407 </v>
    <i name="Tr[quadrupol]">  -1862.91844556 </i>
    <i name="Echarged">      0.00000000 </i>
    <i name="Edipol_quadrupol">      0.00000000 </i>
    <i name="Eion">      0.00000000 </i>
   </dipole>
   <energy>
    <i name="e_fr_energy">    -67.81993680 </i>
    <i name="e_wo_entrp">    -67.81993680 </i>
    <i name="e_0_energy">    -67.81993680 </i>
   </energy>
  </scstep>
  <scstep>
   <time name="diag">    2.70    2.70</time>
   <time name="diis">    5.27    5.27</time>
   <time name="orth">    0.99    0.99</time>
   <time name="total">   19.31   19.34</time>
   <dipole>
    <v name="dipole">      0.00000000       0.00000000      -0.39182153 </v>
    <i name="Tr[quadrupol]">  -1863.46938172 </i>
    <i name="Echarged">      0.00000000 </i>
    <i name="Edipol_quadrupol">      0.00000000 </i>
    <i name="Eion">      0.00000000 </i>
   </dipole>
   <energy>
    <i name="e_fr_energy">    -67.82036159 </i>
    <i name="e_wo_entrp">    -67.82036159 </i>
    <i name="e_0_energy">    -67.82036159 </i>
   </energy>
  </scstep>
  <scstep>
   <time name="diag">    1.22    1.22</time>
   <time name="diis">    3.74    3.74</time>
   <time name="orth">    0.49    0.49</time>
   <time name="total">   15.03   15.05</time>
   <dipole>
    <v name="dipole">      0.00000000       0.00000000      -0.39181412 </v>
    <i name="Tr[quadrupol]">  -1863.80551552 </i>
    <i name="Echarged">      0.00000000 </i>
    <i name="Edipol_quadrupol">      0.00000000 </i>
    <i name="Eion">      0.00000000 </i>
   </dipole>
   <energy>
    <i name="e_fr_energy">    -67.81866212 </i>
    <i name="e_wo_entrp">    -67.81866212 </i>
    <i name="e_0_energy">    -67.81866212 </i>
   </energy>
  </scstep>
  <scstep>
   <time name="diag">    1.51    1.51</time>
   <time name="diis">    3.77    3.77</time>
   <time name="orth">    0.56    0.56</time>
   <time name="total">   13.72   13.75</time>
   <dipole>
    <v name="dipole">      0.00000000       0.00000000      -0.38667318 </v>
    <i name="Tr[quadrupol]">  -1864.16919167 </i>
    <i name="Echarged">      0.00000000 </i>
    <i name="Edipol_quadrupol">      0.00000000 </i>
    <i name="Eion">      0.00000000 </i>
   </dipole>
   <energy>
    <i name="e_fr_energy">    -67.81308752 </i>
    <i name="e_wo_entrp">    -67.81308752 </i>
    <i name="e_0_energy">    -67.81308752 </i>
   </energy>
  </scstep>
  <scstep>
   <time name="diag">    2.70    2.70</time>
   <time name="diis">    4.62    4.62</time>
   <time name="orth">    1.00    1.00</time>
   <time name="total">   18.56   18.58</time>
   <dipole>
    <v name="dipole">      0.00000000       0.00000000      -0.38089539 </v>
    <i name="Tr[quadrupol]">  -1864.34465650 </i>
    <i name="Echarged">      0.00000000 </i>
    <i name="Edipol_quadrupol">      0.00000000 </i>
    <i name="Eion">      0.00000000 </i>
   </dipole>
   <energy>
    <i name="e_fr_energy">    -67.81063888 </i>
    <i name="e_wo_entrp">    -67.81063888 </i>
    <i name="e_0_energy">    -67.81063888 </i>
   </energy>
  </scstep>
  <scstep>
   <time name="diag">    2.69    2.69</time>
   <time name="diis">    4.10    4.10</time>
   <time name="orth">    1.00    1.00</time>
   <time name="total">   18.06   18.08</time>
   <dipole>
    <v name="dipole">      0.00000000       0.00000000      -0.37077710 </v>
    <i name="Tr[quadrupol]">  -1864.53364523 </i>
    <i name="Echarged">      0.00000000 </i>
    <i name="Edipol_quadrupol">      0.00000000 </i>
    <i name="Eion">      0.00000000 </i>
   </dipole>
   <energy>
    <i name="e_fr_energy">    -67.81124365 </i>
    <i name="e_wo_entrp">    -67.81124365 </i>
    <i name="e_0_energy">    -67.81124365 </i>
   </energy>
  </scstep>
  <scstep>
   <time name="diag">    1.38    1.38</time>
   <time name="diis">    2.81    2.81</time>
   <time name="orth">    0.49    0.49</time>
   <time name="total">   13.93   13.96</time>
   <dipole>
    <v name="dipole">      0.00000000       0.00000000      -0.36461335 </v>
    <i name="Tr[quadrupol]">  -1864.62769858 </i>
    <i name="Echarged">      0.00000000 </i>
    <i name="Edipol_quadrupol">      0.00000000 </i>
    <i name="Eion">      0.00000000 </i>
   </dipole>
   <energy>
    <i name="e_fr_energy">    -67.81172650 </i>
    <i name="e_wo_entrp">    -67.81172650 </i>
    <i name="e_0_energy">    -67.81172650 </i>
   </energy>
  </scstep>
  <scstep>
   <time name="diag">    1.47    1.47</time>
   <time name="diis">    2.87    2.87</time>
   <time name="orth">    0.60    0.60</time>
   <time name="total">   12.87   12.89</time>
   <dipole>
    <v name="dipole">      0.00000000       0.00000000      -0.35989199 </v>
    <i name="Tr[quadrupol]">  -1864.69506959 </i>
    <i name="Echarged">      0.00000000 </i>
    <i name="Edipol_quadrupol">      0.00000000 </i>
    <i name="Eion">      0.00000000 </i>
   </dipole>
   <energy>
    <i name="e_fr_energy">    -67.81158466 </i>
    <i name="e_wo_entrp">    -67.81158466 </i>
    <i name="e_0_energy">    -67.81158466 </i>
   </energy>
  </scstep>
  <scstep>
   <time name="diag">    2.67    2.67</time>
   <time name="diis">    3.66    3.66</time>
   <time name="orth">    1.07    1.07</time>
   <time name="total">   17.59   17.60</time>
   <dipole>
    <v name="dipole">      0.00000000       0.00000000      -0.35803914 </v>
    <i name="Tr[quadrupol]">  -1864.74477790 </i>
    <i name="Echarged">      0.00000000 </i>
    <i name="Edipol_quadrupol">      0.00000000 </i>
    <i name="Eion">      0.00000000 </i>
   </dipole>
   <energy>
    <i name="e_fr_energy">    -67.81149603 </i>
    <i name="e_wo_entrp">    -67.81149603 </i>
    <i name="e_0_energy">    -67.81149603 </i>
   </energy>
  </scstep>
  <scstep>
   <time name="diag">    2.63    2.64</time>
   <time name="diis">    3.34    3.34</time>
   <time name="orth">    0.98    0.98</time>
   <time name="total">   17.26   17.28</time>
   <dipole>
    <v name="dipole">      0.00000000       0.00000000      -0.35628311 </v>
    <i name="Tr[quadrupol]">  -1864.79131509 </i>
    <i name="Echarged">      0.00000000 </i>
    <i name="Edipol_quadrupol">      0.00000000 </i>
    <i name="Eion">      0.00000000 </i>
   </dipole>
   <energy>
    <i name="e_fr_energy">    -67.81149029 </i>
    <i name="e_wo_entrp">    -67.81149029 </i>
    <i name="e_0_energy">    -67.81149029 </i>
   </energy>
  </scstep>
  <scstep>
   <time name="diag">    1.22    1.22</time>
   <time name="diis">    2.14    2.14</time>
   <time name="orth">    0.47    0.47</time>
   <time name="total">   13.21   13.24</time>
   <dipole>
    <v name="dipole">      0.00000000       0.00000000      -0.35543920 </v>
    <i name="Tr[quadrupol]">  -1864.78789907 </i>
    <i name="Echarged">      0.00000000 </i>
    <i name="Edipol_quadrupol">      0.00000000 </i>
    <i name="Eion">      0.00000000 </i>
   </dipole>
   <energy>
    <i name="e_fr_energy">    -67.81153851 </i>
    <i name="e_wo_entrp">    -67.81153851 </i>
    <i name="e_0_energy">    -67.81153851 </i>
   </energy>
  </scstep>
  <scstep>
   <time name="diag">    1.59    1.59</time>
   <time name="diis">    2.14    2.14</time>
   <time name="orth">    0.43    0.43</time>
   <time name="total">   12.00   12.02</time>
   <dipole>
    <v name="dipole">      0.00000000       0.00000000      -0.35550803 </v>
    <i name="Tr[quadrupol]">  -1864.74048267 </i>
    <i name="Echarged">      0.00000000 </i>
    <i name="Edipol_quadrupol">      0.00000000 </i>
    <i name="Eion">      0.00000000 </i>
   </dipole>
   <energy>
    <i name="e_fr_energy">    -67.81156083 </i>
    <i name="e_wo_entrp">    -67.81156083 </i>
    <i name="e_0_energy">    -67.81156083 </i>
   </energy>
  </scstep>
  <scstep>
   <time name="diag">    2.66    2.66</time>
   <time name="diis">    3.08    3.08</time>
   <time name="orth">    1.01    1.01</time>
   <time name="total">   15.97   15.99</time>
   <dipole>
    <v name="dipole">      0.00000000       0.00000000      -0.35574283 </v>
    <i name="Tr[quadrupol]">  -1864.59994281 </i>
    <i name="Echarged">      0.00000000 </i>
    <i name="Edipol_quadrupol">      0.00000000 </i>
    <i name="Eion">      0.00000000 </i>
   </dipole>
   <energy>
    <i name="e_fr_energy">    -67.81156877 </i>
    <i name="e_wo_entrp">    -67.81156877 </i>
    <i name="e_0_energy">    -67.81156877 </i>
   </energy>
  </scstep>
  <scstep>
   <time name="diag">    2.66    2.66</time>
   <time name="diis">    3.03    3.03</time>
   <time name="orth">    1.00    1.00</time>
   <time name="total">   17.07   17.09</time>
   <dipole>
    <v name="dipole">      0.00000000       0.00000000      -0.35590270 </v>
    <i name="Tr[quadrupol]">  -1864.92365470 </i>
    <i name="Echarged">      0.00000000 </i>
    <i name="Edipol_quadrupol">      0.00000000 </i>
    <i name="Eion">      0.00000000 </i>
   </dipole>
   <energy>
    <i name="e_fr_energy">    -67.81159189 </i>
    <i name="e_wo_entrp">    -67.81159189 </i>
    <i name="e_0_energy">    -67.81159189 </i>
   </energy>
  </scstep>
  <scstep>
   <time name="diag">    2.03    2.03</time>
   <time name="diis">    1.91    1.91</time>
   <time name="orth">    0.35    0.35</time>
   <time name="total">   14.12   14.15</time>
   <dipole>
    <v name="dipole">      0.00000000       0.00000000      -0.35621606 </v>
    <i name="Tr[quadrupol]">  -1865.06272343 </i>
    <i name="Echarged">      0.00000000 </i>
    <i name="Edipol_quadrupol">      0.00000000 </i>
    <i name="Eion">      0.00000000 </i>
   </dipole>
   <energy>
    <i name="alphaZ">     63.95054335 </i>
    <i name="ewald">  12673.17965950 </i>
    <i name="hartreedc"> -16124.66817004 </i>
    <i name="XCdc">  -2035.22742766 </i>
    <i name="pawpsdc">   5988.57852834 </i>
    <i name="pawaedc">  -3574.86348550 </i>
    <i name="eentropy">      0.00000000 </i>
    <i name="bandstr">   -886.74938264 </i>
    <i name="atom">   3827.98814510 </i>
    <i name="e_fr_energy">    -67.81158954 </i>
    <i name="e_wo_entrp">    -67.81158954 </i>
    <i name="e_0_energy">    -67.81158954 </i>
   </energy>
  </scstep>
  <structure>
   <crystal>
    <varray name="basis" >
     <v>       9.55575275       0.00000000       0.00000000 </v>
     <v>      -4.77787638       8.27552464       0.00000000 </v>
     <v>       0.00000000       0.00000000      32.62509537 </v>
    </varray>
    <i name="volume">   2579.95558872 </i>
    <varray name="rec_basis" >
     <v>       0.10464900       0.06041913       0.00000000 </v>
     <v>       0.00000000       0.12083826       0.00000000 </v>
     <v>       0.00000000       0.00000000       0.03065125 </v>
    </varray>
   </crystal>
   <varray name="positions" >
    <v>       0.00000000       0.00000000       0.00000000 </v>
    <v>       0.99854701       0.00000188       0.15773385 </v>
    <v>       0.99321964       0.99741952       0.32866760 </v>
    <v>       0.00000001       0.33333336       0.00000000 </v>
    <v>       0.99940280       0.33322550       0.15726947 </v>
    <v>       0.99682342       0.33400576       0.31013743 </v>
    <v>       0.00000002       0.66666672       0.00000000 </v>
    <v>       0.99849968       0.66534517       0.15704836 </v>
    <v>       0.99689605       0.66965337       0.31258421 </v>
    <v>       0.33333334       0.00000000       0.00000000 </v>
    <v>       0.33308517       0.99996553       0.15706037 </v>
    <v>       0.32734926       0.00047937       0.30836414 </v>
    <v>       0.33333335       0.33333336       0.00000000 </v>
    <v>       0.33198882       0.33251202       0.15711809 </v>
    <v>       0.32808141       0.33638513       0.31416206 </v>
    <v>       0.33333336       0.66666672       0.00000000 </v>
    <v>       0.33191014       0.66657931       0.15777487 </v>
    <v>       0.32617995       0.66712788       0.33064070 </v>
    <v>       0.66666668       0.00000000       0.00000000 </v>
    <v>       0.66547714       0.99933588       0.15711759 </v>
    <v>       0.66291652       0.99985835       0.31293339 </v>
    <v>       0.66666668       0.33333336       0.00000000 </v>
    <v>       0.66541517       0.33309807       0.15792035 </v>
    <v>       0.65991826       0.32966338       0.32596122 </v>
    <v>       0.66666670       0.66666672       0.00000000 </v>
    <v>       0.66614535       0.66652201       0.15725730 </v>
    <v>       0.65926973       0.66672949       0.30949126 </v>
    <v>       0.11111113       0.22222222       0.07982145 </v>
    <v>       0.10915609       0.21812082       0.23578691 </v>
    <v>       0.11111114       0.55555561       0.07982145 </v>
    <v>       0.11296155       0.55855829       0.23565280 </v>
    <v>       0.11111116       0.88888894       0.07982145 </v>
    <v>       0.10642347       0.88755823       0.23376042 </v>
    <v>       0.44444450       0.22222222       0.07982145 </v>
    <v>       0.44594726       0.22641444       0.23548633 </v>
    <v>       0.44444450       0.55555561       0.07982145 </v>
    <v>       0.43922440       0.55459439       0.23439317 </v>
    <v>       0.44444451       0.88888894       0.07982145 </v>
    <v>       0.44255692       0.88473794       0.23534775 </v>
    <v>       0.77777779       0.22222222       0.07982145 </v>
    <v>       0.77340380       0.22183634       0.23474085 </v>
    <v>       0.77777781       0.55555561       0.07982145 </v>
    <v>       0.77529730       0.55159172       0.23562870 </v>
    <v>       0.77777784       0.88888894       0.07982145 </v>
    <v>       0.77943519       0.89153008       0.23548770 </v>
    <v>       0.96967412       0.98351303       0.39594858 </v>
    <v>       0.25775062       0.95766203       0.41215682 </v>
    <v>       0.89237617       0.23811820       0.41131819 </v>
    <v>       0.65346031       0.33912366       0.39149989 </v>
    <v>       0.63706404       0.61725514       0.41028844 </v>
    <v>       0.30255665       0.68685558       0.39655255 </v>
    <v>       0.95121875       0.06801277       0.40806807 </v>
    <v>       0.06193140       0.98612526       0.41030827 </v>
    <v>       0.36003904       0.05940928       0.41568867 </v>
    <v>       0.24029793       0.95262993       0.38174360 </v>
    <v>       0.99552310       0.34032192       0.41004594 </v>
    <v>       0.86387230       0.21185767       0.38160579 </v>
    <v>       0.66173252       0.44078322       0.40221123 </v>
    <v>       0.73254006       0.31937255       0.40597667 </v>
    <v>       0.73380569       0.72296418       0.40535087 </v>
    <v>       0.56990986       0.59977280       0.38548829 </v>
    <v>       0.29067739       0.77915602       0.40618354 </v>
    <v>       0.37952949       0.67951294       0.41491570 </v>
   </varray>
  </structure>
  <varray name="forces" >
   <v>       0.01495525      -0.02758361       0.00674769 </v>
   <v>      -0.01120081      -0.01545234      -0.00338541 </v>
   <v>       0.01210504      -0.02272220      -0.00964897 </v>
   <v>      -0.02393534      -0.01050190      -0.01923525 </v>
   <v>      -0.00644617       0.00403852      -0.00627980 </v>
   <v>      -0.03037384      -0.00572348       0.01323194 </v>
   <v>      -0.00517837       0.03837458      -0.03136893 </v>
   <v>      -0.01484572       0.00488728       0.00174974 </v>
   <v>      -0.00354534       0.03634700       0.01723074 </v>
   <v>      -0.02908130      -0.01240823      -0.02499150 </v>
   <v>      -0.00344434      -0.00396422       0.00108111 </v>
   <v>      -0.03390617      -0.00593377       0.01162216 </v>
   <v>       0.00629887       0.03030531      -0.01824287 </v>
   <v>       0.00551827       0.01104889      -0.00604875 </v>
   <v>       0.00446650       0.03826302       0.01017775 </v>
   <v>       0.01327008      -0.01211954      -0.00012752 </v>
   <v>      -0.00464193       0.00582210       0.00309846 </v>
   <v>       0.01863842      -0.01386460      -0.01227321 </v>
   <v>       0.00133041       0.02266311      -0.02114336 </v>
   <v>      -0.00104156      -0.00184527       0.00000955 </v>
   <v>       0.00192025       0.03767468       0.00532531 </v>
   <v>       0.00411002      -0.01360802      -0.00210217 </v>
   <v>      -0.01169989       0.01302810       0.00537044 </v>
   <v>       0.00800010      -0.00354502       0.00032242 </v>
   <v>      -0.02203490      -0.00336724      -0.03067199 </v>
   <v>       0.00451832       0.00666650      -0.00022074 </v>
   <v>      -0.03734328       0.00183495       0.00001148 </v>
   <v>       0.00488595      -0.03842960      -0.00005988 </v>
   <v>       0.00490133      -0.02937398       0.00283333 </v>
   <v>       0.02622584       0.00919366       0.00606861 </v>
   <v>       0.01325974       0.02101772       0.00021452 </v>
   <v>      -0.04964681       0.00118752      -0.04362355 </v>
   <v>      -0.02472556      -0.00146855       0.01236768 </v>
   <v>       0.03215576       0.03404795       0.00222209 </v>
   <v>       0.03577935       0.03213423       0.00296802 </v>
   <v>      -0.02820900       0.00055722      -0.03210032 </v>
   <v>      -0.00424831       0.00543196       0.00123488 </v>
   <v>       0.01063327      -0.04134338       0.00382152 </v>
   <v>       0.00107693      -0.02801905       0.00010098 </v>
   <v>      -0.02790185       0.01825521      -0.03492564 </v>
   <v>      -0.02696951       0.02234379       0.00869568 </v>
   <v>       0.01411521      -0.03693460       0.01139195 </v>
   <v>       0.00535174      -0.02709444      -0.01361015 </v>
   <v>       0.05077303       0.01743285       0.00299234 </v>
   <v>       0.03506939       0.00454781      -0.00636228 </v>
   <v>      -0.00476097       0.00153814       0.01230366 </v>
   <v>       0.00292310      -0.00478110       0.03431749 </v>
   <v>       0.00832332      -0.00161961       0.03557109 </v>
   <v>      -0.00888601       0.00422587       0.02297425 </v>
   <v>      -0.02000926      -0.00393441       0.08992758 </v>
   <v>       0.01858213       0.00553716       0.00845956 </v>
   <v>      -0.00203410      -0.00695654       0.00009930 </v>
   <v>       0.00347137      -0.00633924      -0.00680567 </v>
   <v>      -0.00487554      -0.00637683       0.00388262 </v>
   <v>      -0.00484844      -0.02318138      -0.02114047 </v>
   <v>       0.00513773      -0.00300959       0.00605951 </v>
   <v>      -0.01321907      -0.00727891      -0.01853753 </v>
   <v>      -0.01037814       0.00843688       0.01947452 </v>
   <v>      -0.00017022       0.00989458       0.00595264 </v>
   <v>       0.02263465      -0.02155951       0.03138713 </v>
   <v>       0.02309735      -0.01928682      -0.01574239 </v>
   <v>       0.01084928      -0.00692728      -0.00056780 </v>
   <v>       0.04522372       0.01981769      -0.02208364 </v>
  </varray>
  <varray name="stress" >
   <v>      -4.74003320      -1.45151540       0.31714127 </v>
   <v>      -1.45151532      -6.13220712      -0.09049440 </v>
   <v>       0.31714104      -0.09049472       1.34648448 </v>
  </varray>
  <energy>
   <i name="e_fr_energy">    -67.81158954 </i>
   <i name="e_wo_entrp">    -67.81158954 </i>
   <i name="e_0_energy">      0.00000000 </i>
  </energy>
  <time name="totalsc">  447.35  449.14</time>
  <eigenvalues>
   <array>
    <dimension dim="1">band</dimension>
    <dimension dim="2">kpoint</dimension>
    <dimension dim="3">spin</dimension>
    <field>eigene</field>
    <field>occ</field>
    <set>
     <set comment="spin 1">
      <set comment="kpoint 1">
       <r>  -23.9021    1.0000 </r>
       <r>  -23.7890    1.0000 </r>
       <r>  -23.5904    1.0000 </r>
       <r>  -23.4898    1.0000 </r>
       <r>  -23.3840    1.0000 </r>
       <r>  -23.1323    1.0000 </r>
       <r>  -11.9171    1.0000 </r>
       <r>  -11.8351    1.0000 </r>
       <r>  -11.6624    1.0000 </r>
       <r>  -11.2210    1.0000 </r>
       <r>  -11.0640    1.0000 </r>
       <r>  -10.9419    1.0000 </r>
       <r>   -8.8133    1.0000 </r>
       <r>   -8.6548    1.0000 </r>
       <r>   -8.5179    1.0000 </r>
       <r>   -8.0225    1.0000 </r>
       <r>   -7.9267    1.0000 </r>
       <r>   -7.5777    1.0000 </r>
       <r>   -7.4600    1.0000 </r>
       <r>   -6.8577    1.0000 </r>
       <r>   -6.5536    1.0000 </r>
       <r>   -6.4250    1.0000 </r>
       <r>   -6.3156    1.0000 </r>
       <r>   -5.9818    1.0000 </r>
       <r>   -5.9139    1.0000 </r>
       <r>   -5.8740    1.0000 </r>
       <r>   -5.6083    1.0000 </r>
       <r>   -5.3086    1.0000 </r>
       <r>   -5.3067    1.0000 </r>
       <r>   -5.3018    1.0000 </r>
       <r>   -5.2979    1.0000 </r>
       <r>   -5.2660    1.0000 </r>
       <r>   -5.2640    1.0000 </r>
       <r>   -4.7576    1.0000 </r>
       <r>   -4.7421    1.0000 </r>
       <r>   -4.7352    1.0000 </r>
       <r>   -4.7336    1.0000 </r>
       <r>   -4.7270    1.0000 </r>
       <r>   -4.6151    1.0000 </r>
       <r>   -4.6073    1.0000 </r>
       <r>   -3.8660    1.0000 </r>
       <r>   -3.8596    1.0000 </r>
       <r>   -3.8490    1.0000 </r>
       <r>   -3.8395    1.0000 </r>
       <r>   -3.7160    1.0000 </r>
       <r>   -3.7137    1.0000 </r>
       <r>   -3.2261    1.0000 </r>
       <r>   -2.7235    1.0000 </r>
       <r>   -2.7180    1.0000 </r>
       <r>   -2.6762    1.0000 </r>
       <r>   -2.6617    1.0000 </r>
       <r>   -2.6247    1.0000 </r>
       <r>   -2.5954    1.0000 </r>
       <r>   -1.8057    1.0000 </r>
       <r>   -1.3047    1.0000 </r>
       <r>   -1.2776    1.0000 </r>
       <r>   -1.2236    1.0000 </r>
       <r>   -1.1883    1.0000 </r>
       <r>   -1.1807    1.0000 </r>
       <r>   -1.1355    1.0000 </r>
       <r>   -1.1316    1.0000 </r>
       <r>   -1.1260    1.0000 </r>
       <r>   -1.0836    1.0000 </r>
       <r>   -1.0780    1.0000 </r>
       <r>   -1.0520    1.0000 </r>
       <r>   -1.0144    1.0000 </r>
       <r>   -0.7922    1.0000 </r>
       <r>   -0.6892    1.0000 </r>
       <r>   -0.5874    0.0000 </r>
       <r>   -0.5677    0.0000 </r>
       <r>   -0.4542    0.0000 </r>
       <r>   -0.4337    0.0000 </r>
       <r>   -0.2029    0.0000 </r>
       <r>   -0.1296    0.0000 </r>
       <r>   -0.0917    0.0000 </r>
       <r>    0.0985    0.0000 </r>
       <r>    0.1170    0.0000 </r>
       <r>    0.1825    0.0000 </r>
       <r>    0.2190    0.0000 </r>
       <r>    0.2415    0.0000 </r>
       <r>    0.2669    0.0000 </r>
       <r>    0.4499    0.0000 </r>
       <r>    0.5019    0.0000 </r>
       <r>    0.8090    0.0000 </r>
       <r>    0.9643    0.0000 </r>
       <r>    0.9708    0.0000 </r>
       <r>    0.9762    0.0000 </r>
       <r>    0.9816    0.0000 </r>
       <r>    0.9908    0.0000 </r>
       <r>    1.0013    0.0000 </r>
       <r>    1.0582    0.0000 </r>
       <r>    1.1637    0.0000 </r>
       <r>    1.2609    0.0000 </r>
       <r>    1.2954    0.0000 </r>
       <r>    1.5419    0.0000 </r>
       <r>    1.5462    0.0000 </r>
       <r>    1.5545    0.0000 </r>
       <r>    1.5587    0.0000 </r>
       <r>    1.5646    0.0000 </r>
       <r>    1.5804    0.0000 </r>
       <r>    1.6858    0.0000 </r>
       <r>    1.7581    0.0000 </r>
      </set>
      <set comment="kpoint 2">
       <r>  -23.9003    1.0000 </r>
       <r>  -23.7910    1.0000 </r>
       <r>  -23.5953    1.0000 </r>
       <r>  -23.4833    1.0000 </r>
       <r>  -23.3847    1.0000 </r>
       <r>  -23.1332    1.0000 </r>
       <r>  -11.9147    1.0000 </r>
       <r>  -11.8366    1.0000 </r>
       <r>  -11.6643    1.0000 </r>
       <r>  -11.2097    1.0000 </r>
       <r>  -11.0798    1.0000 </r>
       <r>  -10.9364    1.0000 </r>
       <r>   -8.8098    1.0000 </r>
       <r>   -8.6499    1.0000 </r>
       <r>   -8.5323    1.0000 </r>
       <r>   -8.0023    1.0000 </r>
       <r>   -7.9306    1.0000 </r>
       <r>   -7.5870    1.0000 </r>
       <r>   -7.2178    1.0000 </r>
       <r>   -6.6343    1.0000 </r>
       <r>   -6.5628    1.0000 </r>
       <r>   -6.4980    1.0000 </r>
       <r>   -6.4059    1.0000 </r>
       <r>   -6.3050    1.0000 </r>
       <r>   -5.9820    1.0000 </r>
       <r>   -5.8961    1.0000 </r>
       <r>   -5.8617    1.0000 </r>
       <r>   -5.7827    1.0000 </r>
       <r>   -5.7529    1.0000 </r>
       <r>   -5.6924    1.0000 </r>
       <r>   -5.5947    1.0000 </r>
       <r>   -5.2091    1.0000 </r>
       <r>   -5.1232    1.0000 </r>
       <r>   -4.9832    1.0000 </r>
       <r>   -4.5198    1.0000 </r>
       <r>   -4.3567    1.0000 </r>
       <r>   -4.3275    1.0000 </r>
       <r>   -4.3241    1.0000 </r>
       <r>   -4.2336    1.0000 </r>
       <r>   -3.8267    1.0000 </r>
       <r>   -3.7950    1.0000 </r>
       <r>   -3.6990    1.0000 </r>
       <r>   -3.6362    1.0000 </r>
       <r>   -3.1616    1.0000 </r>
       <r>   -3.1089    1.0000 </r>
       <r>   -3.0380    1.0000 </r>
       <r>   -2.9902    1.0000 </r>
       <r>   -2.9537    1.0000 </r>
       <r>   -2.9281    1.0000 </r>
       <r>   -2.9228    1.0000 </r>
       <r>   -2.8366    1.0000 </r>
       <r>   -2.4088    1.0000 </r>
       <r>   -2.3273    1.0000 </r>
       <r>   -2.2890    1.0000 </r>
       <r>   -2.2130    1.0000 </r>
       <r>   -1.8032    1.0000 </r>
       <r>   -1.7459    1.0000 </r>
       <r>   -1.6973    1.0000 </r>
       <r>   -1.6012    1.0000 </r>
       <r>   -1.5846    1.0000 </r>
       <r>   -1.5476    1.0000 </r>
       <r>   -1.5196    1.0000 </r>
       <r>   -1.4949    1.0000 </r>
       <r>   -1.3138    1.0000 </r>
       <r>   -0.9100    1.0000 </r>
       <r>   -0.8993    1.0000 </r>
       <r>   -0.8935    1.0000 </r>
       <r>   -0.6778    1.0000 </r>
       <r>   -0.6611    0.4999 </r>
       <r>   -0.6468    0.0829 </r>
       <r>   -0.6080   -0.0334 </r>
       <r>   -0.5016   -0.0216 </r>
       <r>   -0.3024    0.0000 </r>
       <r>   -0.1067    0.0000 </r>
       <r>   -0.0468    0.0000 </r>
       <r>   -0.0059    0.0000 </r>
       <r>    0.0216    0.0000 </r>
       <r>    0.1465    0.0000 </r>
       <r>    0.1730    0.0000 </r>
       <r>    0.2477    0.0000 </r>
       <r>    0.4633    0.0000 </r>
       <r>    0.4725    0.0000 </r>
       <r>    0.5492    0.0000 </r>
       <r>    0.5723    0.0000 </r>
       <r>    0.5984    0.0000 </r>
       <r>    0.8252    0.0000 </r>
       <r>    0.8375    0.0000 </r>
       <r>    0.8823    0.0000 </r>
       <r>    1.0194    0.0000 </r>
       <r>    1.0455    0.0000 </r>
       <r>    1.0632    0.0000 </r>
       <r>    1.2465    0.0000 </r>
       <r>    1.2853    0.0000 </r>
       <r>    1.3017    0.0000 </r>
       <r>    1.3796    0.0000 </r>
       <r>    1.4185    0.0000 </r>
       <r>    1.4201    0.0000 </r>
       <r>    1.2485    0.0000 </r>
       <r>    1.5038    0.0000 </r>
       <r>    1.5706    0.0000 </r>
       <r>    1.6529    0.0000 </r>
       <r>    1.7757    0.0000 </r>
      </set>
      <set comment="kpoint 3">
       <r>  -23.9003    1.0000 </r>
       <r>  -23.7898    1.0000 </r>
       <r>  -23.5933    1.0000 </r>
       <r>  -23.4981    1.0000 </r>
       <r>  -23.3699    1.0000 </r>
       <r>  -23.1364    1.0000 </r>
       <r>  -11.9179    1.0000 </r>
       <r>  -11.8328    1.0000 </r>
       <r>  -11.6622    1.0000 </r>
       <r>  -11.2146    1.0000 </r>
       <r>  -11.0825    1.0000 </r>
       <r>  -10.9312    1.0000 </r>
       <r>   -8.8082    1.0000 </r>
       <r>   -8.6546    1.0000 </r>
       <r>   -8.5335    1.0000 </r>
       <r>   -8.0050    1.0000 </r>
       <r>   -7.9177    1.0000 </r>
       <r>   -7.5944    1.0000 </r>
       <r>   -7.2175    1.0000 </r>
       <r>   -6.6329    1.0000 </r>
       <r>   -6.5644    1.0000 </r>
       <r>   -6.4999    1.0000 </r>
       <r>   -6.3999    1.0000 </r>
       <r>   -6.3067    1.0000 </r>
       <r>   -5.9819    1.0000 </r>
       <r>   -5.8868    1.0000 </r>
       <r>   -5.8719    1.0000 </r>
       <r>   -5.7831    1.0000 </r>
       <r>   -5.7524    1.0000 </r>
       <r>   -5.6908    1.0000 </r>
       <r>   -5.5979    1.0000 </r>
       <r>   -5.2094    1.0000 </r>
       <r>   -5.1213    1.0000 </r>
       <r>   -4.9846    1.0000 </r>
       <r>   -4.5201    1.0000 </r>
       <r>   -4.3574    1.0000 </r>
       <r>   -4.3267    1.0000 </r>
       <r>   -4.3246    1.0000 </r>
       <r>   -4.2321    1.0000 </r>
       <r>   -3.8269    1.0000 </r>
       <r>   -3.7956    1.0000 </r>
       <r>   -3.6984    1.0000 </r>
       <r>   -3.6362    1.0000 </r>
       <r>   -3.1655    1.0000 </r>
       <r>   -3.1060    1.0000 </r>
       <r>   -3.0359    1.0000 </r>
       <r>   -2.9878    1.0000 </r>
       <r>   -2.9552    1.0000 </r>
       <r>   -2.9293    1.0000 </r>
       <r>   -2.9223    1.0000 </r>
       <r>   -2.8361    1.0000 </r>
       <r>   -2.4094    1.0000 </r>
       <r>   -2.3276    1.0000 </r>
       <r>   -2.2884    1.0000 </r>
       <r>   -2.2118    1.0000 </r>
       <r>   -1.8101    1.0000 </r>
       <r>   -1.7407    1.0000 </r>
       <r>   -1.7001    1.0000 </r>
       <r>   -1.5999    1.0000 </r>
       <r>   -1.5840    1.0000 </r>
       <r>   -1.5550    1.0000 </r>
       <r>   -1.5081    1.0000 </r>
       <r>   -1.4952    1.0000 </r>
       <r>   -1.3130    1.0000 </r>
       <r>   -0.9111    1.0000 </r>
       <r>   -0.8995    1.0000 </r>
       <r>   -0.8928    1.0000 </r>
       <r>   -0.6893    1.0000 </r>
       <r>   -0.6524    0.4681 </r>
       <r>   -0.6500    0.1162 </r>
       <r>   -0.6115   -0.0306 </r>
       <r>   -0.5007   -0.0217 </r>
       <r>   -0.3071    0.0000 </r>
       <r>   -0.0889    0.0000 </r>
       <r>   -0.0476    0.0000 </r>
       <r>   -0.0037    0.0000 </r>
       <r>    0.0226    0.0000 </r>
       <r>    0.1455    0.0000 </r>
       <r>    0.1632    0.0000 </r>
       <r>    0.2555    0.0000 </r>
       <r>    0.4595    0.0000 </r>
       <r>    0.4750    0.0000 </r>
       <r>    0.5498    0.0000 </r>
       <r>    0.5717    0.0000 </r>
       <r>    0.5916    0.0000 </r>
       <r>    0.8223    0.0000 </r>
       <r>    0.8511    0.0000 </r>
       <r>    0.8729    0.0000 </r>
       <r>    1.0166    0.0000 </r>
       <r>    1.0481    0.0000 </r>
       <r>    1.0549    0.0000 </r>
       <r>    1.2561    0.0000 </r>
       <r>    1.2845    0.0000 </r>
       <r>    1.3030    0.0000 </r>
       <r>    1.3707    0.0000 </r>
       <r>    1.4159    0.0000 </r>
       <r>    1.4662    0.0000 </r>
       <r>    1.5093    0.0000 </r>
       <r>    1.5825    0.0000 </r>
       <r>    1.6485    0.0000 </r>
       <r>    1.8011    0.0000 </r>
       <r>    2.1085    0.0000 </r>
      </set>
      <set comment="kpoint 4">
       <r>  -23.8991    1.0000 </r>
       <r>  -23.7899    1.0000 </r>
       <r>  -23.6035    1.0000 </r>
       <r>  -23.4842    1.0000 </r>
       <r>  -23.3744    1.0000 </r>
       <r>  -23.1367    1.0000 </r>
       <r>  -11.9158    1.0000 </r>
       <r>  -11.8344    1.0000 </r>
       <r>  -11.6627    1.0000 </r>
       <r>  -11.2218    1.0000 </r>
       <r>  -11.0648    1.0000 </r>
       <r>  -10.9421    1.0000 </r>
       <r>   -8.8072    1.0000 </r>
       <r>   -8.6566    1.0000 </r>
       <r>   -8.5330    1.0000 </r>
       <r>   -7.9938    1.0000 </r>
       <r>   -7.9240    1.0000 </r>
       <r>   -7.5971    1.0000 </r>
       <r>   -6.7410    1.0000 </r>
       <r>   -6.7387    1.0000 </r>
       <r>   -6.7342    1.0000 </r>
       <r>   -6.5631    1.0000 </r>
       <r>   -6.4333    1.0000 </r>
       <r>   -6.3446    1.0000 </r>
       <r>   -6.1118    1.0000 </r>
       <r>   -6.1072    1.0000 </r>
       <r>   -6.0851    1.0000 </r>
       <r>   -5.9798    1.0000 </r>
       <r>   -5.8880    1.0000 </r>
       <r>   -5.6123    1.0000 </r>
       <r>   -5.2239    1.0000 </r>
       <r>   -5.2213    1.0000 </r>
       <r>   -5.2008    1.0000 </r>
       <r>   -4.5792    1.0000 </r>
       <r>   -4.5768    1.0000 </r>
       <r>   -4.5750    1.0000 </r>
       <r>   -4.0739    1.0000 </r>
       <r>   -4.0617    1.0000 </r>
       <r>   -4.0447    1.0000 </r>
       <r>   -3.9813    1.0000 </r>
       <r>   -3.9758    1.0000 </r>
       <r>   -3.9734    1.0000 </r>
       <r>   -3.1251    1.0000 </r>
       <r>   -3.1208    1.0000 </r>
       <r>   -3.1141    1.0000 </r>
       <r>   -2.5517    1.0000 </r>
       <r>   -2.5357    1.0000 </r>
       <r>   -2.5080    1.0000 </r>
       <r>   -2.4959    1.0000 </r>
       <r>   -2.4910    1.0000 </r>
       <r>   -2.4840    1.0000 </r>
       <r>   -2.4656    1.0000 </r>
       <r>   -2.4643    1.0000 </r>
       <r>   -2.4617    1.0000 </r>
[...]
       <r>   -21.9998     0.0000    12.0000 </r>
       <r>   -21.8998     0.0000    12.0000 </r>
       <r>   -21.7997     0.0000    12.0000 </r>
       <r>   -21.6997     0.0000    12.0000 </r>
       <r>   -21.5996     0.0000    12.0000 </r>
       <r>   -21.4996     0.0000    12.0000 </r>
       <r>   -21.3995     0.0000    12.0000 </r>
       <r>   -21.2994     0.0000    12.0000 </r>
       <r>   -21.1994     0.0000    12.0000 </r>
       <r>   -21.0993     0.0000    12.0000 </r>
       <r>   -20.9993     0.0000    12.0000 </r>
       <r>   -20.8992     0.0000    12.0000 </r>
       <r>   -20.7991     0.0000    12.0000 </r>
       <r>   -20.6991     0.0000    12.0000 </r>
       <r>   -20.5990     0.0000    12.0000 </r>
       <r>   -20.4990     0.0000    12.0000 </r>
       <r>   -20.3989     0.0000    12.0000 </r>
       <r>   -20.2988     0.0000    12.0000 </r>
       <r>   -20.1988     0.0000    12.0000 </r>
       <r>   -20.0987     0.0000    12.0000 </r>
       <r>   -19.9987     0.0000    12.0000 </r>
       <r>   -19.8986     0.0000    12.0000 </r>
       <r>   -19.7986     0.0000    12.0000 </r>
       <r>   -19.6985     0.0000    12.0000 </r>
       <r>   -19.5984     0.0000    12.0000 </r>
       <r>   -19.4984     0.0000    12.0000 </r>
       <r>   -19.3983     0.0000    12.0000 </r>
       <r>   -19.2983     0.0000    12.0000 </r>
       <r>   -19.1982     0.0000    12.0000 </r>
       <r>   -19.0981     0.0000    12.0000 </r>
       <r>   -18.9981     0.0000    12.0000 </r>
       <r>   -18.8980     0.0000    12.0000 </r>
       <r>   -18.7980     0.0000    12.0000 </r>
       <r>   -18.6979     0.0000    12.0000 </r>
       <r>   -18.5978     0.0000    12.0000 </r>
       <r>   -18.4978     0.0000    12.0000 </r>
       <r>   -18.3977     0.0000    12.0000 </r>
       <r>   -18.2977     0.0000    12.0000 </r>
       <r>   -18.1976     0.0000    12.0000 </r>
       <r>   -18.0976     0.0000    12.0000 </r>
       <r>   -17.9975     0.0000    12.0000 </r>
       <r>   -17.8974     0.0000    12.0000 </r>
       <r>   -17.7974     0.0000    12.0000 </r>
       <r>   -17.6973     0.0000    12.0000 </r>
       <r>   -17.5973     0.0000    12.0000 </r>
       <r>   -17.4972     0.0000    12.0000 </r>
       <r>   -17.3971     0.0000    12.0000 </r>
       <r>   -17.2971     0.0000    12.0000 </r>
       <r>   -17.1970     0.0000    12.0000 </r>
       <r>   -17.0970     0.0000    12.0000 </r>
       <r>   -16.9969     0.0000    12.0000 </r>
       <r>   -16.8968     0.0000    12.0000 </r>
       <r>   -16.7968     0.0000    12.0000 </r>
       <r>   -16.6967     0.0000    12.0000 </r>
       <r>   -16.5967     0.0000    12.0000 </r>
       <r>   -16.4966     0.0000    12.0000 </r>
       <r>   -16.3966     0.0000    12.0000 </r>
       <r>   -16.2965     0.0000    12.0000 </r>
       <r>   -16.1964     0.0000    12.0000 </r>
       <r>   -16.0964     0.0000    12.0000 </r>
       <r>   -15.9963     0.0000    12.0000 </r>
       <r>   -15.8963     0.0000    12.0000 </r>
       <r>   -15.7962     0.0000    12.0000 </r>
       <r>   -15.6961     0.0000    12.0000 </r>
       <r>   -15.5961     0.0000    12.0000 </r>
       <r>   -15.4960     0.0000    12.0000 </r>
       <r>   -15.3960     0.0000    12.0000 </r>
       <r>   -15.2959     0.0000    12.0000 </r>
       <r>   -15.1958     0.0000    12.0000 </r>
       <r>   -15.0958     0.0000    12.0000 </r>
       <r>   -14.9957     0.0000    12.0000 </r>
       <r>   -14.8957     0.0000    12.0000 </r>
       <r>   -14.7956     0.0000    12.0000 </r>
       <r>   -14.6956     0.0000    12.0000 </r>
       <r>   -14.5955     0.0000    12.0000 </r>
       <r>   -14.4954     0.0000    12.0000 </r>
       <r>   -14.3954     0.0000    12.0000 </r>
       <r>   -14.2953     0.0000    12.0000 </r>
       <r>   -14.1953     0.0000    12.0000 </r>
       <r>   -14.0952     0.0000    12.0000 </r>
       <r>   -13.9951     0.0000    12.0000 </r>
       <r>   -13.8951     0.0000    12.0000 </r>
       <r>   -13.7950     0.0000    12.0000 </r>
       <r>   -13.6950     0.0000    12.0000 </r>
       <r>   -13.5949     0.0000    12.0000 </r>
       <r>   -13.4948     0.0000    12.0000 </r>
       <r>   -13.3948     0.0000    12.0000 </r>
       <r>   -13.2947     0.0000    12.0000 </r>
       <r>   -13.1947     0.0000    12.0000 </r>
       <r>   -13.0946     0.0000    12.0000 </r>
       <r>   -12.9946     0.0000    12.0000 </r>
       <r>   -12.8945     0.0000    12.0000 </r>
       <r>   -12.7944     0.0000    12.0000 </r>
       <r>   -12.6944     0.0000    12.0000 </r>
       <r>   -12.5943     0.0000    12.0000 </r>
       <r>   -12.4943     0.0000    12.0000 </r>
       <r>   -12.3942     0.0000    12.0000 </r>
       <r>   -12.2941     0.0000    12.0000 </r>
       <r>   -12.1941     0.0000    12.0000 </r>
       <r>   -12.0940     0.0000    12.0000 </r>
       <r>   -11.9940     0.0000    12.0000 </r>
       <r>   -11.8939     0.0000    14.0000 </r>
       <r>   -11.7938     0.0000    16.0000 </r>
       <r>   -11.6938     0.0000    16.0000 </r>
       <r>   -11.5937     0.0000    18.0000 </r>
       <r>   -11.4937     0.0000    18.0000 </r>
       <r>   -11.3936     0.0000    18.0000 </r>
       <r>   -11.2936     0.0000    18.0000 </r>
       <r>   -11.1935     0.0000    20.0000 </r>
       <r>   -11.0934     0.0000    20.0000 </r>
       <r>   -10.9934     0.0000    22.0000 </r>
       <r>   -10.8933     0.0000    24.0000 </r>
       <r>   -10.7933     0.0000    24.0000 </r>
       <r>   -10.6932     0.0000    24.0000 </r>
       <r>   -10.5931     0.0000    24.0000 </r>
       <r>   -10.4931     0.0000    24.0000 </r>
       <r>   -10.3930     0.0000    24.0000 </r>
       <r>   -10.2930     0.0000    24.0000 </r>
       <r>   -10.1929     0.0000    24.0000 </r>
       <r>   -10.0928     0.0000    24.0000 </r>
       <r>    -9.9928     0.0000    24.0000 </r>
       <r>    -9.8927     0.0000    24.0000 </r>
       <r>    -9.7927     0.0000    24.0000 </r>
       <r>    -9.6926     0.0000    24.0000 </r>
       <r>    -9.5926     0.0000    24.0000 </r>
       <r>    -9.4925     0.0000    24.0000 </r>
       <r>    -9.3924     0.0000    24.0000 </r>
       <r>    -9.2924     0.0000    24.0000 </r>
       <r>    -9.1923     0.0000    24.0000 </r>
       <r>    -9.0923     0.0000    24.0000 </r>
       <r>    -8.9922     0.0000    24.0000 </r>
       <r>    -8.8921     0.0000    24.0000 </r>
       <r>    -8.7921     0.0000    26.0000 </r>
       <r>    -8.6920     0.0000    26.0000 </r>
       <r>    -8.5920     0.0000    28.0000 </r>
       <r>    -8.4919     0.0000    30.0000 </r>
       <r>    -8.3918     0.0000    30.0000 </r>
       <r>    -8.2918     0.0000    30.0000 </r>
       <r>    -8.1917     0.0000    30.0000 </r>
       <r>    -8.0917     0.0000    30.0000 </r>
       <r>    -7.9916     0.0000    32.0000 </r>
       <r>    -7.8916     0.0000    34.0000 </r>
       <r>    -7.7915     0.0000    34.0000 </r>
       <r>    -7.6914     0.0000    34.0000 </r>
       <r>    -7.5914   196.1995    35.0088 </r>
       <r>    -7.4913     0.0000    36.0000 </r>
       <r>    -7.3913     1.5622    36.0537 </r>
       <r>    -7.2912     3.8355    36.3238 </r>
       <r>    -7.1911     5.2813    36.8114 </r>
       <r>    -7.0911     4.1073    37.2811 </r>
       <r>    -6.9910     2.9332    37.6334 </r>
       <r>    -6.8910     1.7592    37.8681 </r>
       <r>    -6.7909     2.4330    38.0471 </r>
       <r>    -6.6908    21.3925    38.7777 </r>
       <r>    -6.5908    13.4357    40.9635 </r>
       <r>    -6.4907    20.1047    43.2668 </r>
       <r>    -6.3907    13.7224    45.4849 </r>
       <r>    -6.2906     3.8664    47.4030 </r>
       <r>    -6.1906     2.6136    47.7272 </r>
       <r>    -6.0905     5.6998    47.9701 </r>
       <r>    -5.9904    31.4744    49.8154 </r>
       <r>    -5.8904    60.2907    52.8004 </r>
       <r>    -5.7903    30.8067    55.5959 </r>
       <r>    -5.6903    42.8274    57.0618 </r>
       <r>    -5.5902    17.5515    59.1957 </r>
       <r>    -5.4901    11.9783    60.6731 </r>
       <r>    -5.3901     6.4051    61.5928 </r>
       <r>    -5.2900     1.2744    61.9579 </r>
       <r>    -5.1900     9.8061    64.2107 </r>
       <r>    -5.0899     0.0000    66.0000 </r>
       <r>    -4.9898     0.0000    66.0000 </r>
       <r>    -4.8898     8.4774    66.9895 </r>
       <r>    -4.7897     4.2545    67.6264 </r>
       <r>    -4.6897     4.2894    67.9610 </r>
       <r>    -4.5896     8.1835    68.5745 </r>
       <r>    -4.4896    12.3544    71.0406 </r>
       <r>    -4.3895    21.6177    72.7402 </r>
       <r>    -4.2894    21.6845    74.6129 </r>
       <r>    -4.1894    21.2950    76.8307 </r>
       <r>    -4.0893     6.1186    78.2022 </r>
       <r>    -3.9893     1.3574    78.4194 </r>
       <r>    -3.8892    22.0287    79.4767 </r>
       <r>    -3.7891    12.0349    82.7832 </r>
       <r>    -3.6891     5.3069    84.4108 </r>
       <r>    -3.5890     6.2810    85.0430 </r>
       <r>    -3.4890     6.2039    85.6676 </r>
       <r>    -3.3889     6.1268    86.2845 </r>
       <r>    -3.2888     6.0498    86.8937 </r>
       <r>    -3.1888     6.8540    87.5116 </r>
       <r>    -3.0887     5.0723    90.7937 </r>
       <r>    -2.9887    10.3908    91.5912 </r>
       <r>    -2.8886    38.9027    94.0479 </r>
       <r>    -2.7886    36.1825    97.9082 </r>
       <r>    -2.6885    17.2492   100.5212 </r>
       <r>    -2.5884     8.2595   101.7055 </r>
       <r>    -2.4884     5.9486   102.3696 </r>
       <r>    -2.3883    21.6624   105.0679 </r>
       <r>    -2.2883     2.7231   107.3430 </r>
       <r>    -2.1882    15.3959   107.9299 </r>
       <r>    -2.0881     7.8699   109.0939 </r>
       <r>    -1.9881     4.1872   109.5496 </r>
       <r>    -1.8880    19.0331   110.6483 </r>
       <r>    -1.7880    32.2191   113.3914 </r>
       <r>    -1.6879    32.8886   116.6679 </r>
       <r>    -1.5878    36.7305   120.3054 </r>
       <r>    -1.4878    17.6763   123.0360 </r>
       <r>    -1.3877    12.2244   124.5319 </r>
       <r>    -1.2877    13.1958   126.9741 </r>
       <r>    -1.1876     9.0605   128.0796 </r>
       <r>    -1.0876     9.9373   128.9274 </r>
       <r>    -0.9875    27.5249   130.6017 </r>
       <r>    -0.8874    18.3188   134.0735 </r>
       <r>    -0.7874     9.1112   135.4163 </r>
       <r>    -0.6873    87.0420   136.8855 </r>
       <r>    -0.5873    24.5122   141.7494 </r>
       <r>    -0.4872    20.5503   143.6274 </r>
       <r>    -0.3871    10.1830   144.7355 </r>
       <r>    -0.2871    16.2966   146.0925 </r>
       <r>    -0.1870     9.1929   147.6412 </r>
       <r>    -0.0870     9.5475   149.1418 </r>
       <r>     0.0131    40.5110   150.6349 </r>
       <r>     0.1132    14.4095   154.0866 </r>
       <r>     0.2132     5.8168   157.9838 </r>
       <r>     0.3133     5.8250   160.2138 </r>
       <r>     0.4133    14.3521   161.2232 </r>
       <r>     0.5134    21.5358   163.4096 </r>
       <r>     0.6134    40.7913   166.9573 </r>
       <r>     0.7135    10.2007   169.1096 </r>
       <r>     0.8136     3.7892   169.8044 </r>
       <r>     0.9136    29.8969   174.1889 </r>
       <r>     1.0137    48.1252   175.8782 </r>
       <r>     1.1137    17.5604   178.7074 </r>
       <r>     1.2138    27.1551   180.5538 </r>
       <r>     1.3139    32.2952   184.2544 </r>
       <r>     1.4139    45.4855   187.5964 </r>
       <r>     1.5140    50.8486   193.2077 </r>
       <r>     1.6140    34.0366   198.4101 </r>
       <r>     1.7141    12.0567   200.7373 </r>
       <r>     1.8142     8.9893   201.5024 </r>
       <r>     1.9142     7.1411   202.3094 </r>
       <r>     2.0143     5.2929   202.9314 </r>
       <r>     2.1143    14.0450   203.9917 </r>
       <r>     2.2144     0.0000   204.0000 </r>
       <r>     2.3144     0.0000   204.0000 </r>
       <r>     2.4145     0.0000   204.0000 </r>
       <r>     2.5146     0.0000   204.0000 </r>
       <r>     2.6146     0.0000   204.0000 </r>
       <r>     2.7147     0.0000   204.0000 </r>
       <r>     2.8147     0.0000   204.0000 </r>
       <r>     2.9148     0.0000   204.0000 </r>
       <r>     3.0149     0.0000   204.0000 </r>
       <r>     3.1149     0.0000   204.0000 </r>
       <r>     3.2150     0.0000   204.0000 </r>
       <r>     3.3150     0.0000   204.0000 </r>
       <r>     3.4151     0.0000   204.0000 </r>
       <r>     3.5152     0.0000   204.0000 </r>
       <r>     3.6152     0.0000   204.0000 </r>
       <r>     3.7153     0.0000   204.0000 </r>
       <r>     3.8153     0.0000   204.0000 </r>
       <r>     3.9154     0.0000   204.0000 </r>
       <r>     4.0154     0.0000   204.0000 </r>
       <r>     4.1155     0.0000   204.0000 </r>
      </set>
     </set>
    </array>
   </total>
  </dos>
 </calculation>
 <structure name="finalpos" >
  <crystal>
   <varray name="basis" >
    <v>       9.55575275       0.00000000       0.00000000 </v>
    <v>      -4.77787638       8.27552464       0.00000000 </v>
    <v>       0.00000000       0.00000000      32.62509537 </v>
   </varray>
   <i name="volume">   2579.95558872 </i>
   <varray name="rec_basis" >
    <v>       0.10464900       0.06041913       0.00000000 </v>
    <v>       0.00000000       0.12083826       0.00000000 </v>
    <v>       0.00000000       0.00000000       0.03065125 </v>
   </varray>
  </crystal>
  <varray name="positions" >
   <v>       0.00000000       0.00000000       0.00000000 </v>
   <v>       0.99854701       0.00000188       0.15773385 </v>
   <v>       0.99321964       0.99741952       0.32866760 </v>
   <v>       0.00000001       0.33333336       0.00000000 </v>
   <v>       0.99940280       0.33322550       0.15726947 </v>
   <v>       0.99682342       0.33400576       0.31013743 </v>
   <v>       0.00000002       0.66666672       0.00000000 </v>
   <v>       0.99849968       0.66534517       0.15704836 </v>
   <v>       0.99689605       0.66965337       0.31258421 </v>
   <v>       0.33333334       0.00000000       0.00000000 </v>
   <v>       0.33308517       0.99996553       0.15706037 </v>
   <v>       0.32734926       0.00047937       0.30836414 </v>
   <v>       0.33333335       0.33333336       0.00000000 </v>
   <v>       0.33198882       0.33251202       0.15711809 </v>
   <v>       0.32808141       0.33638513       0.31416206 </v>
   <v>       0.33333336       0.66666672       0.00000000 </v>
   <v>       0.33191014       0.66657931       0.15777487 </v>
   <v>       0.32617995       0.66712788       0.33064070 </v>
   <v>       0.66666668       0.00000000       0.00000000 </v>
   <v>       0.66547714       0.99933588       0.15711759 </v>
   <v>       0.66291652       0.99985835       0.31293339 </v>
   <v>       0.66666668       0.33333336       0.00000000 </v>
   <v>       0.66541517       0.33309807       0.15792035 </v>
   <v>       0.65991826       0.32966338       0.32596122 </v>
   <v>       0.66666670       0.66666672       0.00000000 </v>
   <v>       0.66614535       0.66652201       0.15725730 </v>
   <v>       0.65926973       0.66672949       0.30949126 </v>
   <v>       0.11111113       0.22222222       0.07982145 </v>
   <v>       0.10915609       0.21812082       0.23578691 </v>
   <v>       0.11111114       0.55555561       0.07982145 </v>
   <v>       0.11296155       0.55855829       0.23565280 </v>
   <v>       0.11111116       0.88888894       0.07982145 </v>
   <v>       0.10642347       0.88755823       0.23376042 </v>
   <v>       0.44444450       0.22222222       0.07982145 </v>
   <v>       0.44594726       0.22641444       0.23548633 </v>
   <v>       0.44444450       0.55555561       0.07982145 </v>
   <v>       0.43922440       0.55459439       0.23439317 </v>
   <v>       0.44444451       0.88888894       0.07982145 </v>
   <v>       0.44255692       0.88473794       0.23534775 </v>
   <v>       0.77777779       0.22222222       0.07982145 </v>
   <v>       0.77340380       0.22183634       0.23474085 </v>
   <v>       0.77777781       0.55555561       0.07982145 </v>
   <v>       0.77529730       0.55159172       0.23562870 </v>
   <v>       0.77777784       0.88888894       0.07982145 </v>
   <v>       0.77943519       0.89153008       0.23548770 </v>
   <v>       0.96967412       0.98351303       0.39594858 </v>
   <v>       0.25775062       0.95766203       0.41215682 </v>
   <v>       0.89237617       0.23811820       0.41131819 </v>
   <v>       0.65346031       0.33912366       0.39149989 </v>
   <v>       0.63706404       0.61725514       0.41028844 </v>
   <v>       0.30255665       0.68685558       0.39655255 </v>
   <v>       0.95121875       0.06801277       0.40806807 </v>
   <v>       0.06193140       0.98612526       0.41030827 </v>
   <v>       0.36003904       0.05940928       0.41568867 </v>
   <v>       0.24029793       0.95262993       0.38174360 </v>
   <v>       0.99552310       0.34032192       0.41004594 </v>
   <v>       0.86387230       0.21185767       0.38160579 </v>
   <v>       0.66173252       0.44078322       0.40221123 </v>
   <v>       0.73254006       0.31937255       0.40597667 </v>
   <v>       0.73380569       0.72296418       0.40535087 </v>
   <v>       0.56990986       0.59977280       0.38548829 </v>
   <v>       0.29067739       0.77915602       0.40618354 </v>
   <v>       0.37952949       0.67951294       0.41491570 </v>
  </varray>
  <varray name="selective"  type="logical" >
   <v type="logical" >  F  F  F </v>
   <v type="logical" >  T  T  T </v>
   <v type="logical" >  T  T  T </v>
   <v type="logical" >  F  F  F </v>
   <v type="logical" >  T  T  T </v>
   <v type="logical" >  T  T  T </v>
   <v type="logical" >  F  F  F </v>
   <v type="logical" >  T  T  T </v>
   <v type="logical" >  T  T  T </v>
   <v type="logical" >  F  F  F </v>
   <v type="logical" >  T  T  T </v>
   <v type="logical" >  T  T  T </v>
   <v type="logical" >  F  F  F </v>
   <v type="logical" >  T  T  T </v>
   <v type="logical" >  T  T  T </v>
   <v type="logical" >  F  F  F </v>
   <v type="logical" >  T  T  T </v>
   <v type="logical" >  T  T  T </v>
   <v type="logical" >  F  F  F </v>
   <v type="logical" >  T  T  T </v>
   <v type="logical" >  T  T  T </v>
   <v type="logical" >  F  F  F </v>
   <v type="logical" >  T  T  T </v>
   <v type="logical" >  T  T  T </v>
   <v type="logical" >  F  F  F </v>
   <v type="logical" >  T  T  T </v>
   <v type="logical" >  T  T  T </v>
   <v type="logical" >  F  F  F </v>
   <v type="logical" >  T  T  T </v>
   <v type="logical" >  F  F  F </v>
   <v type="logical" >  T  T  T </v>
   <v type="logical" >  F  F  F </v>
   <v type="logical" >  T  T  T </v>
   <v type="logical" >  F  F  F </v>
   <v type="logical" >  T  T  T </v>
   <v type="logical" >  F  F  F </v>
   <v type="logical" >  T  T  T </v>
   <v type="logical" >  F  F  F </v>
   <v type="logical" >  T  T  T </v>
   <v type="logical" >  F  F  F </v>
   <v type="logical" >  T  T  T </v>
   <v type="logical" >  F  F  F </v>
   <v type="logical" >  T  T  T </v>
   <v type="logical" >  F  F  F </v>
   <v type="logical" >  T  T  T </v>
   <v type="logical" >  T  T  T </v>
   <v type="logical" >  T  T  T </v>
   <v type="logical" >  T  T  T </v>
   <v type="logical" >  T  T  T </v>
   <v type="logical" >  T  T  T </v>
   <v type="logical" >  T  T  T </v>
   <v type="logical" >  T  T  T </v>
   <v type="logical" >  T  T  T </v>
   <v type="logical" >  T  T  T </v>
   <v type="logical" >  T  T  T </v>
   <v type="logical" >  T  T  T </v>
   <v type="logical" >  T  T  T </v>
   <v type="logical" >  T  T  T </v>
   <v type="logical" >  T  T  T </v>
   <v type="logical" >  T  T  T </v>
   <v type="logical" >  T  T  T </v>
   <v type="logical" >  T  T  T </v>
   <v type="logical" >  T  T  T </v>
  </varray>
  <nose>
   <v>      -3.00000000       0.00000000       0.00010000       0.00010000 </v>
  </nose>
 </structure>
</modeling>
