Mg_slab_in_a_box                        
           1
     9.555753    0.000000    0.000000
    -4.777876    8.275525    0.000000
     0.000000    0.000000   32.625095
   Mg   O    H 
  45   6  12
Direct configuration=     1
   0.00000000  0.00000000  0.00000000
   0.99854701  0.00000188  0.15773385
   0.99321964  0.99741952  0.32866760
   0.00000001  0.33333336  0.00000000
   0.99940280  0.33322550  0.15726947
   0.99682342  0.33400576  0.31013743
   0.00000002  0.66666672  0.00000000
   0.99849968  0.66534517  0.15704836
   0.99689605  0.66965337  0.31258421
   0.33333334  0.00000000  0.00000000
   0.33308517  0.99996553  0.15706037
   0.32734926  0.00047937  0.30836414
   0.33333335  0.33333336  0.00000000
   0.33198882  0.33251202  0.15711809
   0.32808141  0.33638513  0.31416206
   0.33333336  0.66666672  0.00000000
   0.33191014  0.66657931  0.15777487
   0.32617995  0.66712788  0.33064070
   0.66666668  0.00000000  0.00000000
   0.66547714  0.99933588  0.15711759
   0.66291652  0.99985835  0.31293339
   0.66666668  0.33333336  0.00000000
   0.66541517  0.33309807  0.15792035
   0.65991826  0.32966338  0.32596122
   0.66666670  0.66666672  0.00000000
   0.66614535  0.66652201  0.15725730
   0.65926973  0.66672949  0.30949126
   0.11111113  0.22222222  0.07982145
   0.10915609  0.21812082  0.23578691
   0.11111114  0.55555561  0.07982145
   0.11296155  0.55855829  0.23565280
   0.11111116  0.88888894  0.07982145
   0.10642347  0.88755823  0.23376042
   0.44444450  0.22222222  0.07982145
   0.44594726  0.22641444  0.23548633
   0.44444450  0.55555561  0.07982145
   0.43922440  0.55459439  0.23439317
   0.44444451  0.88888894  0.07982145
   0.44255692  0.88473794  0.23534775
   0.77777779  0.22222222  0.07982145
   0.77340380  0.22183634  0.23474085
   0.77777781  0.55555561  0.07982145
   0.77529730  0.55159172  0.23562870
   0.77777784  0.88888894  0.07982145
   0.77943519  0.89153008  0.23548770
   0.96967412  0.98351303  0.39594858
   0.25775062  0.95766203  0.41215682
   0.89237617  0.23811820  0.41131819
   0.65346031  0.33912366  0.39149989
   0.63706404  0.61725514  0.41028844
   0.30255665  0.68685558  0.39655255
   0.95121875  0.06801277  0.40806807
   0.06193140  0.98612526  0.41030827
   0.36003904  0.05940928  0.41568867
   0.24029793  0.95262993  0.38174360
   0.99552310  0.34032192  0.41004594
   0.86387230  0.21185767  0.38160579
   0.66173252  0.44078322  0.40221123
   0.73254006  0.31937255  0.40597667
   0.73380569  0.72296418  0.40535087
   0.56990986  0.59977280  0.38548829
   0.29067739  0.77915602  0.40618354
   0.37952949  0.67951294  0.41491570
