  63  63   0   0
  0.4095168E+02  0.9555753E-09  0.9555753E-09  0.3262510E-08  0.5000000E-15
  1.000000000000000E-004
  CAR 
 Mg_slab_in_a_box                        
      4.27249582    -26.16701217  301     -0.50922490      1.00000000
    -26.167  0.0000E+00  0.0000E+00
    -26.066  0.0000E+00  0.0000E+00
    -25.964  0.0000E+00  0.0000E+00
    -25.863  0.0000E+00  0.0000E+00
    -25.761  0.0000E+00  0.0000E+00
    -25.660  0.0000E+00  0.0000E+00
    -25.558  0.0000E+00  0.0000E+00
    -25.457  0.0000E+00  0.0000E+00
    -25.355  0.0000E+00  0.0000E+00
    -25.254  0.0000E+00  0.0000E+00
    -25.152  0.0000E+00  0.0000E+00
    -25.051  0.0000E+00  0.0000E+00
    -24.949  0.0000E+00  0.0000E+00
    -24.848  0.0000E+00  0.0000E+00
    -24.747  0.0000E+00  0.0000E+00
    -24.645  0.0000E+00  0.0000E+00
    -24.544  0.0000E+00  0.0000E+00
    -24.442  0.0000E+00  0.0000E+00
    -24.341  0.0000E+00  0.0000E+00
    -24.239  0.0000E+00  0.0000E+00
    -24.138  0.0000E+00  0.2000E+01
    -24.036  0.0000E+00  0.2000E+01
    -23.935  0.0000E+00  0.2000E+01
    -23.833  0.0000E+00  0.2000E+01
    -23.732  0.0000E+00  0.4000E+01
    -23.630  0.0000E+00  0.6000E+01
    -23.529  0.0000E+00  0.6000E+01
    -23.427  0.0000E+00  0.8000E+01
    -23.326  0.0000E+00  0.8000E+01
    -23.225  0.0000E+00  0.1000E+02
    -23.123  0.0000E+00  0.1000E+02
    -23.022  0.0000E+00  0.1000E+02
    -22.920  0.0000E+00  0.1000E+02
    -22.819  0.0000E+00  0.1000E+02
    -22.717  0.0000E+00  0.1000E+02
    -22.616  0.0000E+00  0.1000E+02
    -22.514  0.0000E+00  0.1000E+02
    -22.413  0.0000E+00  0.1000E+02
    -22.311  0.0000E+00  0.1000E+02
    -22.210  0.0000E+00  0.1000E+02
    -22.108  0.0000E+00  0.1200E+02
    -22.007  0.0000E+00  0.1200E+02
    -21.905  0.0000E+00  0.1200E+02
    -21.804  0.0000E+00  0.1200E+02
    -21.703  0.0000E+00  0.1200E+02
    -21.601  0.0000E+00  0.1200E+02
    -21.500  0.0000E+00  0.1200E+02
    -21.398  0.0000E+00  0.1200E+02
    -21.297  0.0000E+00  0.1200E+02
    -21.195  0.0000E+00  0.1200E+02
    -21.094  0.0000E+00  0.1200E+02
    -20.992  0.0000E+00  0.1200E+02
    -20.891  0.0000E+00  0.1200E+02
    -20.789  0.0000E+00  0.1200E+02
    -20.688  0.0000E+00  0.1200E+02
    -20.586  0.0000E+00  0.1200E+02
    -20.485  0.0000E+00  0.1200E+02
    -20.384  0.0000E+00  0.1200E+02
    -20.282  0.0000E+00  0.1200E+02
    -20.181  0.0000E+00  0.1200E+02
    -20.079  0.0000E+00  0.1200E+02
    -19.978  0.0000E+00  0.1200E+02
    -19.876  0.0000E+00  0.1200E+02
    -19.775  0.0000E+00  0.1200E+02
    -19.673  0.0000E+00  0.1200E+02
    -19.572  0.0000E+00  0.1200E+02
    -19.470  0.0000E+00  0.1200E+02
    -19.369  0.0000E+00  0.1200E+02
    -19.267  0.0000E+00  0.1200E+02
    -19.166  0.0000E+00  0.1200E+02
    -19.064  0.0000E+00  0.1200E+02
    -18.963  0.0000E+00  0.1200E+02
    -18.862  0.0000E+00  0.1200E+02
    -18.760  0.0000E+00  0.1200E+02
    -18.659  0.0000E+00  0.1200E+02
    -18.557  0.0000E+00  0.1200E+02
    -18.456  0.0000E+00  0.1200E+02
    -18.354  0.0000E+00  0.1200E+02
    -18.253  0.0000E+00  0.1200E+02
    -18.151  0.0000E+00  0.1200E+02
    -18.050  0.0000E+00  0.1200E+02
    -17.948  0.0000E+00  0.1200E+02
    -17.847  0.0000E+00  0.1200E+02
    -17.745  0.0000E+00  0.1200E+02
    -17.644  0.0000E+00  0.1200E+02
    -17.542  0.0000E+00  0.1200E+02
    -17.441  0.0000E+00  0.1200E+02
    -17.340  0.0000E+00  0.1200E+02
    -17.238  0.0000E+00  0.1200E+02
    -17.137  0.0000E+00  0.1200E+02
    -17.035  0.0000E+00  0.1200E+02
    -16.934  0.0000E+00  0.1200E+02
    -16.832  0.0000E+00  0.1200E+02
    -16.731  0.0000E+00  0.1200E+02
    -16.629  0.0000E+00  0.1200E+02
    -16.528  0.0000E+00  0.1200E+02
    -16.426  0.0000E+00  0.1200E+02
    -16.325  0.0000E+00  0.1200E+02
    -16.223  0.0000E+00  0.1200E+02
    -16.122  0.0000E+00  0.1200E+02
    -16.021  0.0000E+00  0.1200E+02
    -15.919  0.0000E+00  0.1200E+02
    -15.818  0.0000E+00  0.1200E+02
    -15.716  0.0000E+00  0.1200E+02
    -15.615  0.0000E+00  0.1200E+02
    -15.513  0.0000E+00  0.1200E+02
    -15.412  0.0000E+00  0.1200E+02
    -15.310  0.0000E+00  0.1200E+02
    -15.209  0.0000E+00  0.1200E+02
    -15.107  0.0000E+00  0.1200E+02
    -15.006  0.0000E+00  0.1200E+02
    -14.904  0.0000E+00  0.1200E+02
    -14.803  0.0000E+00  0.1200E+02
    -14.701  0.0000E+00  0.1200E+02
    -14.600  0.0000E+00  0.1200E+02
    -14.499  0.0000E+00  0.1200E+02
    -14.397  0.0000E+00  0.1200E+02
    -14.296  0.0000E+00  0.1200E+02
    -14.194  0.0000E+00  0.1200E+02
    -14.093  0.0000E+00  0.1200E+02
    -13.991  0.0000E+00  0.1200E+02
    -13.890  0.0000E+00  0.1200E+02
    -13.788  0.0000E+00  0.1200E+02
    -13.687  0.0000E+00  0.1200E+02
    -13.585  0.0000E+00  0.1200E+02
    -13.484  0.0000E+00  0.1200E+02
    -13.382  0.0000E+00  0.1200E+02
    -13.281  0.0000E+00  0.1200E+02
    -13.179  0.0000E+00  0.1200E+02
    -13.078  0.0000E+00  0.1200E+02
    -12.977  0.0000E+00  0.1200E+02
    -12.875  0.0000E+00  0.1200E+02
    -12.774  0.0000E+00  0.1200E+02
    -12.672  0.0000E+00  0.1200E+02
    -12.571  0.0000E+00  0.1200E+02
    -12.469  0.0000E+00  0.1200E+02
    -12.368  0.0000E+00  0.1200E+02
    -12.266  0.0000E+00  0.1200E+02
    -12.165  0.0000E+00  0.1200E+02
    -12.063  0.0000E+00  0.1400E+02
    -11.962  0.0000E+00  0.1400E+02
    -11.860  0.0000E+00  0.1400E+02
    -11.759  0.0000E+00  0.1600E+02
    -11.658  0.0000E+00  0.1800E+02
    -11.556  0.0000E+00  0.1800E+02
    -11.455  0.0000E+00  0.1800E+02
    -11.353  0.0000E+00  0.1800E+02
    -11.252  0.0000E+00  0.1800E+02
    -11.150  0.0000E+00  0.2000E+02
    -11.049  0.0000E+00  0.2000E+02
    -10.947  0.0000E+00  0.2200E+02
    -10.846  0.0000E+00  0.2200E+02
    -10.744  0.0000E+00  0.2200E+02
    -10.643  0.0000E+00  0.2200E+02
    -10.541  0.0000E+00  0.2200E+02
    -10.440  0.0000E+00  0.2200E+02
    -10.338  0.0000E+00  0.2200E+02
    -10.237  0.0000E+00  0.2200E+02
    -10.136  0.0000E+00  0.2200E+02
    -10.034  0.0000E+00  0.2200E+02
     -9.933  0.0000E+00  0.2200E+02
     -9.831  0.0000E+00  0.2200E+02
     -9.730  0.0000E+00  0.2400E+02
     -9.628  0.0000E+00  0.2400E+02
     -9.527  0.0000E+00  0.2400E+02
     -9.425  0.0000E+00  0.2400E+02
     -9.324  0.0000E+00  0.2400E+02
     -9.222  0.0000E+00  0.2400E+02
     -9.121  0.0000E+00  0.2400E+02
     -9.019  0.0000E+00  0.2400E+02
     -8.918  0.0000E+00  0.2600E+02
     -8.816  0.0000E+00  0.2600E+02
     -8.715  0.0000E+00  0.2600E+02
     -8.614  0.0000E+00  0.2800E+02
     -8.512  0.0000E+00  0.3000E+02
     -8.411  0.0000E+00  0.3000E+02
     -8.309  0.0000E+00  0.3000E+02
     -8.208  0.0000E+00  0.3000E+02
     -8.106  0.7841E+02  0.3091E+02
     -8.005  0.0000E+00  0.3200E+02
     -7.903  0.0000E+00  0.3200E+02
     -7.802  0.0000E+00  0.3400E+02
     -7.700  0.0000E+00  0.3400E+02
     -7.599  0.0000E+00  0.3400E+02
     -7.497  0.0000E+00  0.3400E+02
     -7.396  0.0000E+00  0.3400E+02
     -7.295  0.0000E+00  0.3400E+02
     -7.193  0.4274E+01  0.3422E+02
     -7.092  0.2845E+02  0.3584E+02
     -6.990  0.0000E+00  0.3800E+02
     -6.889  0.7406E+01  0.3885E+02
     -6.787  0.4995E+01  0.3947E+02
     -6.686  0.2585E+01  0.3986E+02
     -6.584  0.7558E+01  0.4027E+02
     -6.483  0.3379E+02  0.4234E+02
     -6.381  0.2031E+02  0.4501E+02
     -6.280  0.4385E+02  0.4834E+02
     -6.178  0.4393E+01  0.4974E+02
     -6.077  0.1516E+02  0.5037E+02
     -5.975  0.2880E+02  0.5332E+02
     -5.874  0.1552E+02  0.5419E+02
     -5.773  0.1074E+02  0.5584E+02
     -5.671  0.1892E+02  0.5734E+02
     -5.570  0.3294E+02  0.5949E+02
     -5.468  0.6293E+01  0.6085E+02
     -5.367  0.4548E+01  0.6140E+02
     -5.265  0.1571E+02  0.6207E+02
     -5.164  0.9486E+01  0.6354E+02
     -5.062  0.2020E+01  0.6400E+02
     -4.961  0.4849E+01  0.6619E+02
     -4.859  0.9218E+01  0.6698E+02
     -4.758  0.5004E+01  0.6770E+02
     -4.656  0.9026E+01  0.6801E+02
     -4.555  0.6730E+01  0.6948E+02
     -4.453  0.5523E+01  0.7009E+02
     -4.352  0.1283E+02  0.7074E+02
     -4.251  0.2131E+02  0.7313E+02
     -4.149  0.9797E+01  0.7510E+02
     -4.048  0.1666E+02  0.7656E+02
     -3.946  0.1222E+02  0.7837E+02
     -3.845  0.2927E+02  0.8001E+02
     -3.743  0.5251E+01  0.8047E+02
     -3.642  0.2061E+02  0.8160E+02
     -3.540  0.2508E+02  0.8379E+02
     -3.439  0.2420E+02  0.8506E+02
     -3.337  0.7045E+01  0.8691E+02
     -3.236  0.6613E+01  0.8760E+02
     -3.134  0.6909E+01  0.8829E+02
     -3.033  0.7206E+01  0.8900E+02
     -2.932  0.3583E+02  0.9028E+02
     -2.830  0.1935E+02  0.9268E+02
     -2.729  0.2294E+02  0.9452E+02
     -2.627  0.2282E+02  0.9734E+02
     -2.526  0.2660E+02  0.9992E+02
     -2.424  0.1513E+02  0.1015E+03
     -2.323  0.1409E+02  0.1037E+03
     -2.221  0.4510E+02  0.1049E+03
     -2.120  0.8188E+01  0.1073E+03
     -2.018  0.1511E+02  0.1089E+03
     -1.917  0.3373E+01  0.1096E+03
     -1.815  0.4574E+01  0.1112E+03
     -1.714  0.1505E+02  0.1122E+03
     -1.612  0.2800E+02  0.1144E+03
     -1.511  0.2915E+02  0.1174E+03
     -1.410  0.2751E+02  0.1204E+03
     -1.308  0.2232E+02  0.1228E+03
     -1.207  0.1505E+02  0.1248E+03
     -1.105  0.1448E+02  0.1263E+03
     -1.004  0.1835E+02  0.1278E+03
     -0.902  0.1719E+02  0.1296E+03
     -0.801  0.1605E+02  0.1318E+03
     -0.699  0.1701E+02  0.1343E+03
     -0.598  0.1677E+02  0.1365E+03
     -0.496  0.1590E+02  0.1386E+03
     -0.395  0.2871E+02  0.1411E+03
     -0.293  0.1549E+02  0.1432E+03
     -0.192  0.1547E+02  0.1454E+03
     -0.091  0.1356E+02  0.1471E+03
      0.011  0.1449E+02  0.1488E+03
      0.112  0.2104E+02  0.1500E+03
      0.214  0.4443E+02  0.1531E+03
      0.315  0.0000E+00  0.1560E+03
      0.417  0.7670E+02  0.1583E+03
      0.518  0.3818E+02  0.1607E+03
      0.620  0.4729E+02  0.1632E+03
      0.721  0.3177E+02  0.1669E+03
      0.823  0.1819E+02  0.1690E+03
      0.924  0.2985E+02  0.1720E+03
      1.026  0.2771E+02  0.1745E+03
      1.127  0.2870E+02  0.1775E+03
      1.229  0.3421E+02  0.1803E+03
      1.330  0.2228E+02  0.1829E+03
      1.431  0.2561E+02  0.1854E+03
      1.533  0.3944E+02  0.1890E+03
      1.634  0.3468E+02  0.1929E+03
      1.736  0.2384E+02  0.1968E+03
      1.837  0.2457E+02  0.2006E+03
      1.939  0.5551E+01  0.2020E+03
      2.040  0.8193E+01  0.2026E+03
      2.142  0.5752E+01  0.2033E+03
      2.243  0.5887E+01  0.2038E+03
      2.345  0.0000E+00  0.2040E+03
      2.446  0.0000E+00  0.2040E+03
      2.548  0.0000E+00  0.2040E+03
      2.649  0.0000E+00  0.2040E+03
      2.751  0.0000E+00  0.2040E+03
      2.852  0.0000E+00  0.2040E+03
      2.953  0.0000E+00  0.2040E+03
      3.055  0.0000E+00  0.2040E+03
      3.156  0.0000E+00  0.2040E+03
      3.258  0.0000E+00  0.2040E+03
      3.359  0.0000E+00  0.2040E+03
      3.461  0.0000E+00  0.2040E+03
      3.562  0.0000E+00  0.2040E+03
      3.664  0.0000E+00  0.2040E+03
      3.765  0.0000E+00  0.2040E+03
      3.867  0.0000E+00  0.2040E+03
      3.968  0.0000E+00  0.2040E+03
      4.070  0.0000E+00  0.2040E+03
      4.171  0.0000E+00  0.2040E+03
      4.272  0.0000E+00  0.2040E+03
