 vasp.5.4.4.18Apr17-6-g9f103f2a35 (build Jun 08 2018 12:06:12) complex          
  
 executed on             LinuxIFC date 2019.06.06  07:46:21
 running on   72 total cores
 distrk:  each k-point on   72 cores,    1 groups
 distr:  one band on NCORES_PER_BAND=  24 cores,    3 groups


--------------------------------------------------------------------------------------------------------


 INCAR:
 POTCAR:    PAW_PBE Mg 13Apr2007                  
 POTCAR:    PAW_PBE O 08Apr2002                   
 POTCAR:    PAW_PBE H 15Jun2001                   

 ----------------------------------------------------------------------------- 
|                                                                             |
|           W    W    AA    RRRRR   N    N  II  N    N   GGGG   !!!           |
|           W    W   A  A   R    R  NN   N  II  NN   N  G    G  !!!           |
|           W    W  A    A  R    R  N N  N  II  N N  N  G       !!!           |
|           W WW W  AAAAAA  RRRRR   N  N N  II  N  N N  G  GGG   !            |
|           WW  WW  A    A  R   R   N   NN  II  N   NN  G    G                |
|           W    W  A    A  R    R  N    N  II  N    N   GGGG   !!!           |
|                                                                             |
|      For optimal performance we recommend to set                            |
|        NCORE= 4 - approx SQRT( number of cores)                             |
|      NCORE specifies how many cores store one orbital (NPAR=cpu/NCORE).     |
|      This setting can  greatly improve the performance of VASP for DFT.     |
|      The default,   NCORE=1            might be grossly inefficient         |
|      on modern multi-core architectures or massively parallel machines.     |
|      Do your own testing !!!!                                               |
|      Unfortunately you need to use the default for GW and RPA calculations. |
|      (for HF NCORE is supported but not extensively tested yet)             |
|                                                                             |
 ----------------------------------------------------------------------------- 


 ----------------------------------------------------------------------------- 
|                                                                             |
|  ADVICE TO THIS USER RUNNING 'VASP/VAMP'   (HEAR YOUR MASTER'S VOICE ...):  |
|                                                                             |
|      You have switched on vdW-DFT.                                          |
|      This routine was written and supplied by Jiri Klimes.                  |
|      We recommed that you carefully read and cite the following             |
|      publication                                                            |
|      J. Klimes, D.R. Bowler, A. Michelides                                  |
|        J. Phys.: Cond Matt. 22 022201 (2010)                                |
|      J. Klimes, D.R. Bowler, A. Michelides                                  |
|        Phys. Rev. B. 83, 195131 (2011)                                      |
|      and references therein.                                                |
|                                                                             |
 ----------------------------------------------------------------------------- 

 POTCAR:    PAW_PBE Mg 13Apr2007                  
   VRHFIN =Mg: s2p0                                                             
   LEXCH  = PE                                                                  
   EATOM  =    23.0369 eV,    1.6932 Ry                                         
                                                                                
   TITEL  = PAW_PBE Mg 13Apr2007                                                
   LULTRA =        F    use ultrasoft PP ?                                      
   IUNSCR =        1    unscreen: 0-lin 1-nonlin 2-no                           
   RPACOR =    1.500    partial core radius                                     
   POMASS =   24.305; ZVAL   =    2.000    mass and valenz                      
   RCORE  =    2.000    outmost cutoff radius                                   
   RWIGS  =    2.880; RWIGS  =    1.524    wigner-seitz radius (au A)           
   ENMAX  =  200.000; ENMIN  =  100.000 eV                                      
   RCLOC  =    1.506    cutoff for local pot                                    
   LCOR   =        T    correct aug charges                                     
   LPAW   =        T    paw PP                                                  
   EAUG   =  454.734                                                            
   DEXC   =    0.000                                                            
   RMAX   =    2.045    core radius for proj-oper                               
   RAUG   =    1.300    factor for augmentation sphere                          
   RDEP   =    2.025    radius for radial grids                                 
   RDEPT  =    1.942    core radius for aug-charge                              
                                                                                
   Atomic configuration                                                         
    6 entries                                                                   
     n  l   j            E        occ.                                          
     1  0  0.50     -1259.6230   2.0000                                         
     2  0  0.50       -79.8442   2.0000                                         
     2  1  1.50       -46.6121   6.0000                                         
     3  0  0.50        -4.7055   2.0000                                         
     3  1  0.50        -1.3660   0.0000                                         
     3  2  1.50        -1.3606   0.0000                                         
   Description                                                                  
     l       E           TYP  RCUT    TYP  RCUT                                 
     0     -4.7054661     23  2.000                                             
     0     27.2116520     23  2.000                                             
     1      1.3605826     23  2.000                                             
     1     27.2116520     23  2.000                                             
     2     -1.3605826     23  2.000                                             
  local pseudopotential read in
  partial core-charges read in
  partial kinetic energy density read in
  atomic valenz-charges read in
  non local Contribution for L=           0  read in
    real space projection operators read in
  non local Contribution for L=           0  read in
    real space projection operators read in
  non local Contribution for L=           1  read in
    real space projection operators read in
  non local Contribution for L=           1  read in
    real space projection operators read in
  non local Contribution for L=           2  read in
    real space projection operators read in
    PAW grid and wavefunctions read in
 
   number of l-projection  operators is LMAX  =           5
   number of lm-projection operators is LMMAX =          13
 
 POTCAR:    PAW_PBE O 08Apr2002                   
   VRHFIN =O: s2p4                                                              
   LEXCH  = PE                                                                  
   EATOM  =   432.3788 eV,   31.7789 Ry                                         
                                                                                
   TITEL  = PAW_PBE O 08Apr2002                                                 
   LULTRA =        F    use ultrasoft PP ?                                      
   IUNSCR =        1    unscreen: 0-lin 1-nonlin 2-no                           
   RPACOR =    1.200    partial core radius                                     
   POMASS =   16.000; ZVAL   =    6.000    mass and valenz                      
   RCORE  =    1.520    outmost cutoff radius                                   
   RWIGS  =    1.550; RWIGS  =    0.820    wigner-seitz radius (au A)           
   ENMAX  =  400.000; ENMIN  =  300.000 eV                                      
   ICORE  =        2    local potential                                         
   LCOR   =        T    correct aug charges                                     
   LPAW   =        T    paw PP                                                  
   EAUG   =  605.392                                                            
   DEXC   =    0.000                                                            
   RMAX   =    1.553    core radius for proj-oper                               
   RAUG   =    1.300    factor for augmentation sphere                          
   RDEP   =    1.550    radius for radial grids                                 
   RDEPT  =    1.329    core radius for aug-charge                              
                                                                                
   Atomic configuration                                                         
    4 entries                                                                   
     n  l   j            E        occ.                                          
     1  0  0.50      -514.6923   2.0000                                         
     2  0  0.50       -23.9615   2.0000                                         
     2  1  0.50        -9.0305   4.0000                                         
     3  2  1.50        -9.5241   0.0000                                         
   Description                                                                  
     l       E           TYP  RCUT    TYP  RCUT                                 
     0    -23.9615318     23  1.200                                             
     0     -9.5240782     23  1.200                                             
     1     -9.0304911     23  1.520                                             
     1      8.1634956     23  1.520                                             
     2     -9.5240782      7  1.500                                             
  local pseudopotential read in
  partial core-charges read in
  partial kinetic energy density read in
  kinetic energy density of atom read in
  atomic valenz-charges read in
  non local Contribution for L=           0  read in
    real space projection operators read in
  non local Contribution for L=           0  read in
    real space projection operators read in
  non local Contribution for L=           1  read in
    real space projection operators read in
  non local Contribution for L=           1  read in
    real space projection operators read in
    PAW grid and wavefunctions read in
 
   number of l-projection  operators is LMAX  =           4
   number of lm-projection operators is LMMAX =           8
 
 POTCAR:    PAW_PBE H 15Jun2001                   
   VRHFIN =H: ultrasoft test                                                    
   LEXCH  = PE                                                                  
   EATOM  =    12.4884 eV,    0.9179 Ry                                         
                                                                                
   TITEL  = PAW_PBE H 15Jun2001                                                 
   LULTRA =        F    use ultrasoft PP ?                                      
   IUNSCR =        0    unscreen: 0-lin 1-nonlin 2-no                           
   RPACOR =    0.000    partial core radius                                     
   POMASS =    1.000; ZVAL   =    1.000    mass and valenz                      
   RCORE  =    1.100    outmost cutoff radius                                   
   RWIGS  =    0.700; RWIGS  =    0.370    wigner-seitz radius (au A)           
   ENMAX  =  250.000; ENMIN  =  200.000 eV                                      
   RCLOC  =    0.701    cutoff for local pot                                    
   LCOR   =        T    correct aug charges                                     
   LPAW   =        T    paw PP                                                  
   EAUG   =  400.000                                                            
   RMAX   =    1.123    core radius for proj-oper                               
   RAUG   =    1.200    factor for augmentation sphere                          
   RDEP   =    1.112    radius for radial grids                                 
   RDEPT  =    0.926    core radius for aug-charge                              
                                                                                
   Atomic configuration                                                         
    2 entries                                                                   
     n  l   j            E        occ.                                          
     1  0  0.50        -6.4927   1.0000                                         
     2  1  0.50        -3.4015   0.0000                                         
   Description                                                                  
     l       E           TYP  RCUT    TYP  RCUT                                 
     0     -6.4927494     23  1.100                                             
     0      6.8029130     23  1.100                                             
     1     -4.0817478     23  1.100                                             
  local pseudopotential read in
  atomic valenz-charges read in
  non local Contribution for L=           0  read in
    real space projection operators read in
  non local Contribution for L=           0  read in
    real space projection operators read in
  non local Contribution for L=           1  read in
    real space projection operators read in
    PAW grid and wavefunctions read in
 
   number of l-projection  operators is LMAX  =           3
   number of lm-projection operators is LMMAX =           5
 
 Optimization of the real space projectors (new method)

 maximal supplied QI-value         = 18.90
 optimisation between [QCUT,QGAM] = [ 11.53, 23.24] = [ 37.21,151.29] Ry 
 Optimized for a Real-space Cutoff    1.28 Angstroem

   l    n(q)    QCUT    max X(q) W(low)/X(q) W(high)/X(q)  e(spline) 
   0      9    11.527    28.265    0.62E-04    0.53E-04    0.73E-07
   0      9    11.527    10.429    0.52E-04    0.40E-04    0.58E-07
   1      8    11.527    13.073    0.98E-04    0.18E-03    0.86E-07
   1      8    11.527     9.625    0.79E-04    0.15E-03    0.74E-07
   2      8    11.527     4.652    0.22E-03    0.72E-04    0.47E-07
 Optimization of the real space projectors (new method)

 maximal supplied QI-value         = 24.76
 optimisation between [QCUT,QGAM] = [ 11.64, 23.27] = [ 37.91,151.63] Ry 
 Optimized for a Real-space Cutoff    1.14 Angstroem

   l    n(q)    QCUT    max X(q) W(low)/X(q) W(high)/X(q)  e(spline) 
   0      8    11.635    20.381    0.10E-03    0.33E-03    0.24E-06
   0      8    11.635    15.268    0.11E-03    0.35E-03    0.26E-06
   1      7    11.635     5.964    0.24E-03    0.31E-03    0.30E-06
   1      7    11.635     5.382    0.22E-03    0.25E-03    0.26E-06
 Optimization of the real space projectors (new method)

 maximal supplied QI-value         = 34.20
 optimisation between [QCUT,QGAM] = [ 11.63, 23.26] = [ 37.87,151.49] Ry 
 Optimized for a Real-space Cutoff    1.21 Angstroem

   l    n(q)    QCUT    max X(q) W(low)/X(q) W(high)/X(q)  e(spline) 
   0      8    11.629    19.460    0.17E-03    0.34E-03    0.21E-06
   0      8    11.629    12.209    0.16E-03    0.33E-03    0.21E-06
   1      8    11.629     4.655    0.18E-03    0.16E-03    0.26E-06

 ----------------------------------------------------------------------------- 
|                                                                             |
|  ADVICE TO THIS USER RUNNING 'VASP/VAMP'   (HEAR YOUR MASTER'S VOICE ...):  |
|                                                                             |
|      You enforced a specific xc-type in the INCAR file,                     |
|      a different type was found on the POTCAR file                          |
|          I HOPE YOU KNOW, WHAT YOU ARE  DOING                               |
|                                                                             |
 ----------------------------------------------------------------------------- 

  PAW_PBE Mg 13Apr2007                  :
 energy of atom  1       EATOM=  -23.0369
 kinetic energy error for atom=    0.0000 (will be added to EATOM!!)
  PAW_PBE O 08Apr2002                   :
 energy of atom  2       EATOM= -432.3788
 kinetic energy error for atom=    0.0208 (will be added to EATOM!!)
  PAW_PBE H 15Jun2001                   :
 energy of atom  3       EATOM=  -12.4884
 kinetic energy error for atom=    0.0014 (will be added to EATOM!!)
 
 
 POSCAR: Mg   O    H                             
  positions in direct lattice
  velocities in cartesian coordinates
 exchange correlation table for  LEXCH =       42
   RHO(1)=    0.500       N(1)  =     2000
   RHO(2)=  100.500       N(2)  =     4000

 VTST: version 3.2, (02/03/18)

 CHAIN: initializing optimizer
 
 OPT: Using VASP Dynamics algorithm
 CHAIN: Read ICHAIN            0
 
 POSCAR: Mg   O    H                             
  positions in direct lattice
  velocities in cartesian coordinates
 


--------------------------------------------------------------------------------------------------------


 ion  position               nearest neighbor table
   1  0.000  0.000  0.000-   7 3.19  25 3.19  19 3.19  10 3.19   4 3.19  13 3.19  44 3.19  32 3.19
                            28 3.19
   2  1.000  0.002  0.158-  33 3.12  28 3.14  29 3.14  44 3.15  32 3.16  26 3.17  45 3.17  14 3.17
                             8 3.18  11 3.19  20 3.19   5 3.19
   3  0.002  0.014  0.329-  46 2.18  15 3.11   6 3.17  21 3.20  12 3.22  27 3.28   9 3.28  29 3.50
                            45 3.51  33 3.57
   4  0.000  0.333  0.000-  22 3.19  13 3.19  19 3.19  16 3.19   1 3.19   7 3.19  40 3.19  30 3.19
                            28 3.19
   5  0.000  0.336  0.158-  30 3.13  29 3.14  40 3.15  28 3.16  41 3.16  14 3.18  17 3.19  23 3.19
                             8 3.19   2 3.19  31 3.20  20 3.20
   6  0.996  0.337  0.312-  31 3.07  41 3.07  29 3.11  21 3.13  15 3.15   3 3.17   9 3.19  18 3.22
                            24 3.27
   7  0.000  0.667  0.000-   1 3.19  10 3.19  25 3.19  16 3.19  22 3.19   4 3.19  42 3.19  32 3.19
                            30 3.19
   8  0.001  0.670  0.157-  32 3.11  42 3.14  43 3.14  30 3.14  17 3.16  33 3.16  11 3.17   2 3.18
                            26 3.18   5 3.19  31 3.19  23 3.20
   9  0.000  0.673  0.315-  50 2.13  18 3.12  33 3.13  31 3.13  12 3.17  43 3.19   6 3.19  27 3.26
                             3 3.28  24 3.37
  10  0.333  0.000  0.000-  16 3.19   7 3.19  19 3.19   1 3.19  22 3.19  13 3.19  32 3.19  34 3.19
                            38 3.19
  11  0.333  0.002  0.158-  34 3.12  32 3.13  38 3.14  17 3.16   8 3.17  20 3.18  14 3.18  33 3.18
                            23 3.18   2 3.19  39 3.20  35 3.22
  12  0.329  0.007  0.310-  33 3.02  35 3.03  39 3.06  15 3.14  24 3.16   9 3.17   3 3.22  18 3.23
                            21 3.25
  13  0.333  0.333  0.000-  22 3.19   4 3.19  10 3.19   1 3.19  25 3.19  16 3.19  28 3.19  36 3.19
                            34 3.19
  14  0.332  0.333  0.157-  28 3.12  37 3.12  36 3.12  34 3.13  35 3.17   2 3.17  29 3.17  11 3.18
                             5 3.18  23 3.19  26 3.22  17 3.22
  15  0.324  0.334  0.313-  61 1.97  29 3.07   3 3.11  35 3.12  12 3.14   6 3.15  37 3.20  27 3.26
                            24 3.27  18 3.31
  16  0.333  0.667  0.000-  10 3.19  19 3.19   7 3.19  25 3.19   4 3.19  13 3.19  38 3.19  30 3.19
                            36 3.19
  17  0.333  0.671  0.158-  37 3.09  38 3.13  30 3.14  39 3.15  11 3.16  31 3.16   8 3.16  36 3.17
                            20 3.17   5 3.19  26 3.21  14 3.22
  18  0.322  0.674  0.330-  61 2.00  51 2.16   9 3.12   6 3.22  12 3.23  27 3.26  21 3.30  15 3.31
                            31 3.48  39 3.51
  19  0.667  0.000  0.000-  25 3.19  16 3.19   1 3.19  10 3.19   4 3.19  22 3.19  38 3.19  44 3.19
                            40 3.19
  20  0.665  0.001  0.158-  40 3.14  38 3.14  44 3.16  17 3.17  11 3.18  41 3.18  26 3.18  39 3.18
                            23 3.19   2 3.19  45 3.20   5 3.20
  21  0.669  0.009  0.314-  45 3.12  27 3.12  41 3.12  39 3.13   6 3.13  24 3.14   3 3.20  12 3.25
                            18 3.30
  22  0.667  0.333  0.000-  13 3.19   4 3.19  10 3.19  25 3.19   7 3.19  19 3.19  34 3.19  42 3.19
                            40 3.19
  23  0.666  0.335  0.158-  43 3.11  41 3.12  35 3.13  42 3.14  34 3.15  40 3.16  11 3.18  20 3.19
                             5 3.19  14 3.19  26 3.19   8 3.20
  24  0.655  0.324  0.333-  50 2.10  49 2.26  21 3.14  12 3.16   6 3.27  15 3.27   9 3.37  27 3.41
                            35 3.56  41 3.62
  25  0.667  0.667  0.000-   1 3.19  19 3.19   7 3.19  16 3.19  22 3.19  13 3.19  36 3.19  42 3.19
                            44 3.19
  26  0.668  0.670  0.157-  44 3.10  37 3.11  36 3.13  42 3.13  43 3.13   2 3.17  20 3.18   8 3.18
                            23 3.19  17 3.21  14 3.22  45 3.22
  27  0.661  0.678  0.314-  61 1.96  50 2.08  45 3.05  21 3.12  37 3.17  43 3.22  15 3.26   9 3.26
                            18 3.26   3 3.28  24 3.41
  28  0.111  0.222  0.080-  14 3.12   2 3.14   5 3.16  44 3.19  32 3.19  40 3.19  34 3.19  36 3.19
                            30 3.19   1 3.19  13 3.19   4 3.19
  29  0.109  0.224  0.236-  15 3.07   6 3.11   2 3.14   5 3.14  45 3.15  33 3.16  14 3.17  31 3.21
                            37 3.21  35 3.21  41 3.21   3 3.50
  30  0.111  0.556  0.080-   5 3.13   8 3.14  17 3.14  32 3.19  42 3.19  38 3.19  40 3.19  36 3.19
                            28 3.19  16 3.19   7 3.19   4 3.19
  31  0.114  0.562  0.238-   6 3.07  39 3.13   9 3.13  17 3.16  37 3.18  33 3.19   8 3.19   5 3.20
                            43 3.20  29 3.21  41 3.21  18 3.48
  32  0.111  0.889  0.080-   8 3.11  11 3.13   2 3.16  28 3.19  34 3.19  44 3.19  30 3.19  42 3.19
                            38 3.19  10 3.19   1 3.19   7 3.19
  33  0.107  0.892  0.236-  12 3.02   2 3.12  45 3.12   9 3.13  29 3.16  43 3.16   8 3.16  11 3.18
                            31 3.19  39 3.24  35 3.27   3 3.57
  34  0.444  0.222  0.080-  11 3.12  14 3.13  23 3.15  38 3.19  40 3.19  32 3.19  42 3.19  28 3.19
                            36 3.19  22 3.19  10 3.19  13 3.19
  35  0.450  0.233  0.237-  12 3.03  15 3.12  43 3.12  23 3.13  37 3.14  41 3.14  14 3.17  29 3.21
                            11 3.22  33 3.27  39 3.28  24 3.56
  36  0.444  0.556  0.080-  14 3.12  26 3.13  17 3.17  42 3.19  38 3.19  44 3.19  30 3.19  28 3.19
                            34 3.19  25 3.19  13 3.19  16 3.19
  37  0.445  0.559  0.234-  17 3.09  26 3.11  14 3.12  35 3.14  39 3.15  27 3.17  43 3.18  31 3.18
                            15 3.20  45 3.20  29 3.21
  38  0.444  0.889  0.080-  17 3.13  20 3.14  11 3.14  40 3.19  34 3.19  44 3.19  36 3.19  30 3.19
                            32 3.19  19 3.19  16 3.19  10 3.19
  39  0.444  0.887  0.238-  12 3.06  21 3.13  31 3.13  37 3.15  17 3.15  20 3.18  45 3.19  11 3.20
                            41 3.22  33 3.24  35 3.28  18 3.51
  40  0.778  0.222  0.080-  20 3.14   5 3.15  23 3.16  38 3.19  34 3.19  44 3.19  28 3.19  30 3.19
                            42 3.19   4 3.19  19 3.19  22 3.19
  41  0.776  0.228  0.237-   6 3.07  23 3.12  21 3.12  35 3.14  43 3.15   5 3.16  20 3.18  29 3.21
                            31 3.21  39 3.22  45 3.22  24 3.62
  42  0.778  0.556  0.080-  26 3.13   8 3.14  23 3.14  36 3.19  44 3.19  30 3.19  32 3.19  34 3.19
                            40 3.19  25 3.19   7 3.19  22 3.19
  43  0.778  0.559  0.235-  23 3.11  35 3.12  26 3.13   8 3.14  41 3.15  33 3.16  37 3.18  45 3.18
                             9 3.19  31 3.20  27 3.22
  44  0.778  0.889  0.080-  26 3.10   2 3.15  20 3.16  28 3.19  40 3.19  42 3.19  32 3.19  38 3.19
                            36 3.19   1 3.19  19 3.19  25 3.19
  45  0.781  0.893  0.238-  27 3.05  33 3.12  21 3.12  29 3.15   2 3.17  43 3.18  39 3.19  20 3.20
                            37 3.20  26 3.22  41 3.22   3 3.51
  46  0.994  0.992  0.396-  53 0.99  52 0.99   3 2.18
  47  0.279  0.955  0.412-  54 0.99  55 1.00
  48  0.875  0.218  0.415-  56 0.98  57 1.01
  49  0.616  0.270  0.401-  58 0.98  59 1.00  24 2.26
  50  0.774  0.573  0.345-  60 0.98  27 2.08  24 2.10   9 2.13
  51  0.351  0.707  0.396-  63 0.98  62 1.00  18 2.16
  52  0.960  0.060  0.411-  46 0.99
  53  0.088  0.999  0.410-  46 0.99
  54  0.383  0.056  0.410-  47 0.99
  55  0.241  0.929  0.383-  47 1.00
  56  0.974  0.324  0.418-  48 0.98
  57  0.866  0.204  0.384-  48 1.01
  58  0.613  0.351  0.418-  49 0.98
  59  0.704  0.253  0.412-  49 1.00
  60  0.793  0.606  0.374-  50 0.98
  61  0.443  0.553  0.336-  27 1.96  15 1.97  18 2.00
  62  0.331  0.793  0.407-  51 1.00
  63  0.463  0.740  0.404-  51 0.98
 
  LATTYP: Found a hexagonal cell.
 ALAT       =     9.5557527542
 C/A-ratio  =     3.4141837076
  
  Lattice vectors:
  
 A1 = (   9.5557527542,   0.0000000000,   0.0000000000)
 A2 = (  -4.7778763771,   8.2755246374,   0.0000000000)
 A3 = (   0.0000000000,   0.0000000000,  32.6250953674)


Analysis of symmetry for initial positions (statically):
=====================================================================
 Subroutine PRICEL returns:
 Original cell was already a primitive cell.
 

 Routine SETGRP: Setting up the symmetry group for a 
 hexagonal supercell.


 Subroutine GETGRP returns: Found  1 space group operations
 (whereof  1 operations were pure point group operations)
 out of a pool of 24 trial point group operations.


The static configuration has the point symmetry C_1 .


Analysis of symmetry for dynamics (positions and initial velocities):
=====================================================================
 Subroutine PRICEL returns:
 Original cell was already a primitive cell.
 

 Routine SETGRP: Setting up the symmetry group for a 
 hexagonal supercell.


 Subroutine GETGRP returns: Found  1 space group operations
 (whereof  1 operations were pure point group operations)
 out of a pool of 24 trial point group operations.


The dynamic configuration has the point symmetry C_1 .


Analysis of constrained symmetry for selective dynamics:
=====================================================================
 Subroutine PRICEL returns:
 Original cell was already a primitive cell.
 

 Routine SETGRP: Setting up the symmetry group for a 
 hexagonal supercell.


 Subroutine GETGRP returns: Found  1 space group operations
 (whereof  1 operations were pure point group operations)
 out of a pool of 24 trial point group operations.


The constrained configuration has the point symmetry C_1 .


 Subroutine INISYM returns: Found  1 space group operations
 (whereof  1 operations are pure point group operations),
 and found     1 'primitive' translations

 
 
 KPOINTS: Auto                                    

Automatic generation of k-mesh.
Space group operators:
 irot       det(A)        alpha          n_x          n_y          n_z        tau_x        tau_y        tau_z
    1     1.000000     0.000000     1.000000     0.000000     0.000000     0.000000     0.000000     0.000000
 
 Subroutine IBZKPT returns following result:
 ===========================================
 
 Found      5 irreducible k-points:
 
 Following reciprocal coordinates:
            Coordinates               Weight
  0.000000  0.000000  0.000000      1.000000
  0.333333 -0.000000  0.000000      2.000000
  0.000000  0.333333  0.000000      2.000000
  0.333333  0.333333  0.000000      2.000000
 -0.333333  0.333333  0.000000      2.000000
 
 Following cartesian coordinates:
            Coordinates               Weight
  0.000000  0.000000  0.000000      1.000000
  0.034883  0.020140  0.000000      2.000000
  0.000000  0.040279  0.000000      2.000000
  0.034883  0.060419  0.000000      2.000000
 -0.034883  0.020140  0.000000      2.000000
 
 TETIRR: Found     24 inequivalent tetrahedra from       54


--------------------------------------------------------------------------------------------------------




 Dimension of arrays:
   k-points           NKPTS =      5   k-points in BZ     NKDIM =      5   number of bands    NBANDS=    102
   number of dos      NEDOS =    301   number of ions     NIONS =     63
   non local maximal  LDIM  =      5   non local SUM 2l+1 LMDIM =     13
   total plane-waves  NPLWV = ******
   max r-space proj   IRMAX =   4509   max aug-charges    IRDMAX=  21536
   dimension x,y,z NGX =    72 NGY =   72 NGZ =  250
   dimension x,y,z NGXF=   144 NGYF=  144 NGZF=  500
   support grid    NGXF=   144 NGYF=  144 NGZF=  500
   ions per type =              45   6  12
   NGX,Y,Z   is equivalent  to a cutoff of  12.53, 12.53, 12.74 a.u.
   NGXF,Y,Z  is equivalent  to a cutoff of  25.05, 25.05, 25.48 a.u.

 SYSTEM =  Mg_slab_in_a_box                        
 POSCAR =  Mg   O    H                             

 Startparameter for this run:
   NWRITE =      2    write-flag & timer
   PREC   = accura    normal or accurate (medium, high low for compatibility)
   ISTART =      0    job   : 0-new  1-cont  2-samecut
   ICHARG =      2    charge: 1-file 2-atom 10-const
   ISPIN  =      1    spin polarized calculation?
   LNONCOLLINEAR =      F non collinear calculations
   LSORBIT =      F    spin-orbit coupling
   INIWAV =      1    electr: 0-lowe 1-rand  2-diag
   LASPH  =      T    aspherical Exc in radial PAW
   METAGGA=      F    non-selfconsistent MetaGGA calc.

 Electronic Relaxation 1
   ENCUT  =  520.0 eV  38.22 Ry    6.18 a.u.  17.77 17.77 60.66*2*pi/ulx,y,z
   ENINI  =  520.0     initial cutoff
   ENAUG  =  605.4 eV  augmentation charge cutoff
   NELM   =    300;   NELMIN=  6; NELMDL=-12     # of ELM steps 
   EDIFF  = 0.5E-05   stopping-criterion for ELM
   LREAL  =      T    real-space projection
   NLSPLINE    = F    spline interpolate recip. space projectors
   LCOMPAT=      F    compatible to vasp.4.4
   GGA_COMPAT  = T    GGA compatible to vasp.4.4-vasp.4.6
   LMAXPAW     = -100 max onsite density
   LMAXMIX     =    2 max onsite mixed and CHGCAR
   VOSKOWN=      0    Vosko Wilk Nusair interpolation
   ROPT   =   -0.00025  -0.00025  -0.00025
 Ionic relaxation
   EDIFFG = 0.5E-04   stopping-criterion for IOM
   NSW    =      0    number of steps for IOM
   NBLOCK =      1;   KBLOCK =      1    inner block; outer block 
   IBRION =     -1    ionic relax: 0-MD 1-quasi-New 2-CG
   NFREE  =      0    steps in history (QN), initial steepest desc. (CG)
   ISIF   =      2    stress and relaxation
   IWAVPR =     10    prediction:  0-non 1-charg 2-wave 3-comb
   ISYM   =      2    0-nonsym 1-usesym 2-fastsym
   LCORR  =      T    Harris-Foulkes like correction to forces

   POTIM  = 0.5000    time-step for ionic-motion
   TEIN   =    0.0    initial temperature
   TEBEG  =    0.0;   TEEND  =   0.0 temperature during run
   SMASS  =  -3.00    Nose mass-parameter (am)
   estimated Nose-frequenzy (Omega)   =  0.10E-29 period in steps =****** mass=  -0.209E-26a.u.
   SCALEE = 1.0000    scale energy and forces
   NPACO  =    256;   APACO  = 16.0  distance and # of slots for P.C.
   PSTRESS=    0.0 pullay stress

  Mass of Ions in am
   POMASS =  24.30 16.00  1.00
  Ionic Valenz
   ZVAL   =   2.00  6.00  1.00
  Atomic Wigner-Seitz radii
   RWIGS  =  -1.00 -1.00 -1.00
  virtual crystal weights 
   VCA    =   1.00  1.00  1.00
   NELECT =     138.0000    total number of electrons
   NUPDOWN=      -1.0000    fix difference up-down

 DOS related values:
   EMIN   =  10.00;   EMAX   =-10.00  energy-range for DOS
   EFERMI =   0.00
   ISMEAR =    -5;   SIGMA  =   0.20  broadening in eV -4-tet -1-fermi 0-gaus

 Electronic relaxation 2 (details)
   IALGO  =     48    algorithm
   LDIAG  =      T    sub-space diagonalisation (order eigenvalues)
   LSUBROT=      F    optimize rotation matrix (better conditioning)
   TURBO    =      0    0=normal 1=particle mesh
   IRESTART =      0    0=no restart 2=restart with 2 vectors
   NREBOOT  =      0    no. of reboots
   NMIN     =      0    reboot dimension
   EREF     =   0.00    reference energy to select bands
   IMIX   =      4    mixing-type and parameters
     AMIX     =   0.40;   BMIX     =  1.00
     AMIX_MAG =   1.60;   BMIX_MAG =  1.00
     AMIN     =   0.10
     WC   =   100.;   INIMIX=   1;  MIXPRE=   1;  MAXMIX= -45

 Intra band minimization:
   WEIMIN = 0.0000     energy-eigenvalue tresh-hold
   EBREAK =  0.12E-07  absolut break condition
   DEPER  =   0.30     relativ break condition  

   TIME   =   0.40     timestep for ELM

  volume/ion in A,a.u.               =      40.95       276.36
  Fermi-wavevector in a.u.,A,eV,Ry     =   0.616828  1.165635  5.176694  0.380476
  Thomas-Fermi vector in A             =   1.674695
 
 Write flags
   LWAVE        =      F    write WAVECAR
   LDOWNSAMPLE  =      F    k-point downsampling of WAVECAR
   LCHARG       =      T    write CHGCAR
   LVTOT        =      F    write LOCPOT, total local potential
   LVHAR        =      T    write LOCPOT, Hartree potential only
   LELF         =      F    write electronic localiz. function (ELF)
   LORBIT       =      0    0 simple, 1 ext, 2 COOP (PROOUT), +10 PAW based schemes


 Dipole corrections
   LMONO  =      F    monopole corrections only (constant potential shift)
   LDIPOL =      T    correct potential (dipole corrections)
   IDIPOL =      3    1-x, 2-y, 3-z, 4-all directions 
   EPSILON=  1.0000000 bulk dielectric constant

 Exchange correlation treatment:
   GGA     =    BO    GGA type
   LEXCH   =    42    internal setting for exchange type
   VOSKOWN=      0    Vosko Wilk Nusair interpolation
   LHFCALC =     F    Hartree Fock is set to
   LHFONE  =     F    Hartree Fock one center treatment
   AEXX    =    0.0000 exact exchange contribution

 vdW DFT:
   LUSE_VDW   =     T    switch on vdW DFT
   Zab_VDW    =-.8491    correlation parameter
   PARAM1     =0.1833
   PARAM2     =0.2200
   PARAM3     =0.0000
   -- rVV10 --
   BPARAM     = 6.3000
   CPARAM     = 0.0093

 Linear response parameters
   LEPSILON=     F    determine dielectric tensor
   LRPA    =     F    only Hartree local field effects (RPA)
   LNABLA  =     F    use nabla operator in PAW spheres
   LVEL    =     F    velocity operator in full k-point grid
   LINTERFAST=   F  fast interpolation
   KINTER  =     0    interpolate to denser k-point grid
   CSHIFT  =0.1000    complex shift for real part using Kramers Kronig
   OMEGAMAX=  -1.0    maximum frequency
   DEG_THRESHOLD= 0.2000000E-02 threshold for treating states as degnerate
   RTIME   =   -0.100 relaxation time in fs
  (WPLASMAI=    0.000 imaginary part of plasma frequency in eV, 0.658/RTIME)
   DFIELD  = 0.0000000 0.0000000 0.0000000 field for delta impulse in time
 
 Orbital magnetization related:
   ORBITALMAG=     F  switch on orbital magnetization
   LCHIMAG   =     F  perturbation theory with respect to B field
   DQ        =  0.001000  dq finite difference perturbation B field
   LLRAUG    =     F  two centre corrections for induced B field



--------------------------------------------------------------------------------------------------------


 Static calculation
 charge density and potential will be updated during run
 non-spin polarized calculation
 RMM-DIIS sequential band-by-band
 perform sub-space diagonalisation
    before iterative eigenvector-optimisation
 modified Broyden-mixing scheme, WC =      100.0
 initial mixing is a Kerker type mixing with AMIX =  0.4000 and BMIX =      1.0000
 Hartree-type preconditioning will be used
 using additional bands           33
 real space projection scheme for non local part
 use partial core corrections
 calculate Harris-corrections to forces 
   (improved forces if not selfconsistent)
 use gradient corrections 
 use of overlap-Matrix (Vanderbilt PP)
 Fermi weights with tetrahedron method with Bloechl corrections


--------------------------------------------------------------------------------------------------------


  energy-cutoff  :      520.00
  volume of cell :     2579.96
      direct lattice vectors                 reciprocal lattice vectors
     9.555752754  0.000000000  0.000000000     0.104649003  0.060419130  0.000000000
    -4.777876377  8.275524637  0.000000000     0.000000000  0.120838260  0.000000000
     0.000000000  0.000000000 32.625095367     0.000000000  0.000000000  0.030651251

  length of vectors
     9.555752754  9.555752754 32.625095367     0.120838260  0.120838260  0.030651251


 
 k-points in units of 2pi/SCALE and weight: Auto                                    
   0.00000000  0.00000000  0.00000000       0.111
   0.03488300  0.02013971  0.00000000       0.222
   0.00000000  0.04027942  0.00000000       0.222
   0.03488300  0.06041913  0.00000000       0.222
  -0.03488300  0.02013971  0.00000000       0.222
 
 k-points in reciprocal lattice and weights: Auto                                    
   0.00000000  0.00000000  0.00000000       0.111
   0.33333333 -0.00000000  0.00000000       0.222
   0.00000000  0.33333333  0.00000000       0.222
   0.33333333  0.33333333  0.00000000       0.222
  -0.33333333  0.33333333  0.00000000       0.222
 
 position of ions in fractional coordinates (direct lattice) 
   0.00000000  0.00000000  0.00000000
   0.99979690  0.00188955  0.15822423
   0.00236649  0.01388613  0.32947997
   0.00000001  0.33333336  0.00000000
   0.00027174  0.33629812  0.15802695
   0.99590186  0.33745410  0.31237572
   0.00000002  0.66666672  0.00000000
   0.00126483  0.67020499  0.15742387
   0.00028412  0.67342648  0.31464653
   0.33333334  0.00000000  0.00000000
   0.33329116  0.00170185  0.15756248
   0.32879251  0.00725215  0.30995698
   0.33333335  0.33333336  0.00000000
   0.33200743  0.33339908  0.15714463
   0.32395567  0.33354283  0.31319935
   0.33333336  0.66666672  0.00000000
   0.33263550  0.67059935  0.15802066
   0.32247293  0.67392519  0.33039672
   0.66666668  0.00000000  0.00000000
   0.66536681  0.00131900  0.15795305
   0.66898190  0.00862868  0.31434550
   0.66666668  0.33333336  0.00000000
   0.66629465  0.33512388  0.15833221
   0.65463597  0.32396458  0.33274368
   0.66666670  0.66666672  0.00000000
   0.66826032  0.67014630  0.15698626
   0.66113635  0.67796110  0.31362687
   0.11111113  0.22222222  0.07982145
   0.10936967  0.22414755  0.23637652
   0.11111114  0.55555561  0.07982145
   0.11433205  0.56215838  0.23759210
   0.11111116  0.88888894  0.07982145
   0.10653593  0.89219439  0.23639687
   0.44444450  0.22222222  0.07982145
   0.44961918  0.23330187  0.23686694
   0.44444450  0.55555561  0.07982145
   0.44535012  0.55922480  0.23359385
   0.44444451  0.88888894  0.07982145
   0.44364126  0.88738510  0.23751727
   0.77777779  0.22222222  0.07982145
   0.77568243  0.22828686  0.23650233
   0.77777781  0.55555561  0.07982145
   0.77759573  0.55912383  0.23500646
   0.77777784  0.88888894  0.07982145
   0.78058032  0.89346851  0.23787987
   0.99358234  0.99173979  0.39597746
   0.27870769  0.95487621  0.41233810
   0.87495155  0.21812735  0.41472788
   0.61631060  0.26967494  0.40060347
   0.77408093  0.57273561  0.34533282
   0.35142364  0.70716712  0.39587116
   0.95999676  0.06045582  0.41058582
   0.08815519  0.99884882  0.41008959
   0.38285282  0.05642508  0.40979256
   0.24115847  0.92931929  0.38315920
   0.97350149  0.32353822  0.41801013
   0.86622955  0.20395231  0.38393512
   0.61250691  0.35144720  0.41789888
   0.70441610  0.25266242  0.41166712
   0.79284512  0.60595394  0.37424029
   0.44283313  0.55346246  0.33636771
   0.33056918  0.79264455  0.40661685
   0.46272673  0.73997824  0.40353514
 
 position of ions in cartesian coordinates  (Angst):
   0.00000000  0.00000000  0.00000000
   9.54478396  0.01563702  5.16208072
  -0.04373263  0.11491503 10.74931543
  -1.59262550  2.75850844  0.00000000
  -1.60419411  2.78304334  5.15564423
   7.90427791  2.79260974 10.19128755
  -3.18525100  5.51701689  0.00000000
  -3.19007019  5.54629791  5.13596884
  -3.21483355  5.57295745 10.26537295
   3.18525100  0.00000000  0.00000000
   3.17671671  0.01408373  5.14049106
   3.10721000  0.06001537 10.11237610
   1.59262550  2.75850844  0.00000000
   1.57964137  2.75905228  5.12685858
   1.50201391  2.76024193 10.21815867
  -0.00000001  5.51701689  0.00000000
  -0.02545824  5.54956144  5.15543926
  -0.13845967  5.57708450 10.77922465
   6.37050200  0.00000000  0.00000000
   6.35177868  0.01091544  5.15323348
   6.35139882  0.07140689 10.25555182
   4.77787638  2.75850844  0.00000000
   4.76576647  2.77332591  5.16560349
   4.70767678  2.68097686 10.85579433
   3.18525100  5.51701689  0.00000000
   3.18385423  5.54581222  5.12169159
   3.07844120  5.61048380 10.23210644
   0.00000017  1.83900547  2.60418248
  -0.02583976  1.85493857  7.71180655
  -1.59262550  4.59751415  2.60418248
  -1.59339448  4.65215556  7.75146493
  -3.18525076  7.35602236  2.60418248
  -3.24476353  7.38337665  7.71247058
   3.18525147  1.83900547  2.60418248
   3.18176218  1.93069539  7.72780639
   1.59262574  4.59751415  2.60418248
   1.58374864  4.62787859  7.62102148
   0.00000039  7.35602236  2.60418248
  -0.00049012  7.34357726  7.74902362
   6.37050200  1.83900547  2.60418248
   6.32150313  1.88919356  7.71591123
   4.77787638  4.59751415  2.60418248
   4.75908794  4.62704306  7.66710823
   3.18525124  7.35602236  2.60418248
   3.19015041  7.39392066  7.76085343
   4.75601708  8.20716710 12.91880254
  -1.89901876  7.90210163 13.45256988
   7.31863515  1.80511824 13.53053669
   4.60083824  2.23170159 13.06972647
   4.66046606  4.73968766 11.26651632
  -0.02063969  5.85217895 12.91533443
   8.88464132  0.50030359 13.39540140
  -3.92998696  8.26599803 13.37921190
   3.38885482  0.46694710 13.36952127
  -2.13572192  7.69060467 12.50060547
   7.75671391  2.67744853 13.63762026
   7.30301653  1.68781236 12.52591996
   4.17379331  2.90840996 13.63399085
   5.52403627  2.09091405 13.43067894
   4.68105898  5.01458675 12.20962528
   1.58722870  4.58019221 10.97402846
  -0.62832027  6.55954948 13.26591343
   0.88617770  6.12370814 13.16537247
 


--------------------------------------------------------------------------------------------------------


 k-point  1 :   0.0000 0.0000 0.0000  plane waves:   69403
 k-point  2 :   0.3333-0.0000 0.0000  plane waves:   69509
 k-point  3 :   0.0000 0.3333 0.0000  plane waves:   69509
 k-point  4 :   0.3333 0.3333 0.0000  plane waves:   69474
 k-point  5 :  -0.3333 0.3333 0.0000  plane waves:   69509

 maximum and minimum number of plane-waves per node :      2924     2870

 maximum number of plane-waves:     69509
 maximum index in each direction: 
   IXMAX=   18   IYMAX=   17   IZMAX=   60
   IXMIN=  -18   IYMIN=  -18   IZMIN=  -60


 real space projection operators:
  total allocation   :      22600.88 KBytes
  max/ min on nodes  :       1297.48        551.28


 parallel 3D FFT for wavefunctions:
    minimum data exchange during FFTs selected (reduces bandwidth)
 parallel 3D FFT for charge:
    minimum data exchange during FFTs selected (reduces bandwidth)


 total amount of memory used by VASP MPI-rank0    62199. kBytes
=======================================================================

   base      :      30000. kBytes
   nonlr-proj:       6296. kBytes
   fftplans  :       6459. kBytes
   grid      :      11407. kBytes
   one-center:         24. kBytes
   wavefun   :       8013. kBytes
 
     INWAV:  cpu time    0.0002: real time    0.0014
 Broyden mixing: mesh for mixing (old mesh)
   NGX = 35   NGY = 35   NGZ =121
  (NGX  =144   NGY  =144   NGZ  =500)
  gives a total of 148225 points

 initial charge density was supplied:
 charge density of overlapping atoms calculated
 number of electron     138.0000000 magnetization 
 keeping initial charge density in first step


--------------------------------------------------------------------------------------------------------


 Maximum index for non-local projection operator          297
 Maximum index for augmentation-charges          838 (set IRDMAX)


--------------------------------------------------------------------------------------------------------


 First call to EWALD:  gamma=   0.129
 Maximum number of real-space cells 4x 4x 1
 Maximum number of reciprocal cells 2x 2x 6

    FEWALD:  cpu time    0.0019: real time    0.0019


--------------------------------------- Iteration      1(   1)  ---------------------------------------


vdW kernel read from vdw_kernel.bindat
  0.0000  0.2424  0.5071  0.7962  1.1119  1.4567  1.8333  2.2446  2.6937  3.1842
  3.7199  4.3049  4.9438  5.6415  6.4036  7.2358  8.1446  9.1372 10.2212 11.4050
 12.6979 14.1099 15.6519 17.3360 19.1751 21.1837 23.3773 25.7729 28.3892 31.2465
 34.3669 37.7748 41.4965 45.5611 50.0000
 
    POTLOK:  cpu time    5.3683: real time    5.5641
    SETDIJ:  cpu time    0.1358: real time    0.1358
    EDDIAG:  cpu time    0.4826: real time    0.4837
  RMM-DIIS:  cpu time    1.0483: real time    1.0488
    ORTHCH:  cpu time    0.0713: real time    0.0713
 BZINTS: Fermi energy:  9.575414;138.000000 electrons
         Band energy: 212.959329;  BLOECHL correction: -0.162484
       DOS:  cpu time    0.0029: real time    0.0029
    --------------------------------------------
      LOOP:  cpu time    7.1093: real time    7.3065

 eigenvalue-minimisations  :   510
 total energy-change (2. order) : 0.1247414E+04  (-0.2794574E+04)
 number of electron     138.0000000 magnetization 
 augmentation part      138.0000000 magnetization 

 DIPCOR: dipole corrections for dipol
 direction  3 min pos   365,
 dipolmoment           0.000000      0.000000     -0.000307 electrons x Angstroem
 Tr[quadrupol]     -1833.027857

 energy correction for charged system         0.000000 eV
 dipol+quadrupol energy correction           -0.000000 eV
 added-field ion interaction          0.001239 eV  (added to PSCEN)


 Free energy of the ion-electron system (eV)
  ---------------------------------------------------
  alpha Z        PSCENC =        63.16230259
  Ewald energy   TEWEN  =     13154.85865409
  -Hartree energ DENC   =    -16376.91403790
  -exchange      EXHF   =         0.00000000
  -V(xc)+E(xc)   XCENC  =     -2050.78539860
  PAW double counting   =      5135.15659847    -2719.01140655
  entropy T*S    EENTRO =         0.00000000
  eigenvalues    EBANDS =       212.95932901
  atomic energy  EATOM  =      3827.98814510
  Solvation  Ediel_sol  =         0.00000000
  ---------------------------------------------------
  free energy    TOTEN  =      1247.41418621 eV

  energy without entropy =     1247.41418621  energy(sigma->0) =     1247.41418621


--------------------------------------------------------------------------------------------------------




--------------------------------------- Iteration      1(   2)  ---------------------------------------


    EDDIAG:  cpu time    0.4841: real time    0.5099
  RMM-DIIS:  cpu time    1.0492: real time    1.0495
    ORTHCH:  cpu time    0.0712: real time    0.0713
 BZINTS: Fermi energy:  2.124121;138.000000 electrons
         Band energy:-487.591252;  BLOECHL correction: -0.111851
       DOS:  cpu time    0.0035: real time    0.0035
    --------------------------------------------
      LOOP:  cpu time    1.6081: real time    1.6343

 eigenvalue-minimisations  :   510
 total energy-change (2. order) :-0.7005506E+03  (-0.7602888E+03)
 number of electron     138.0000000 magnetization 
 augmentation part      138.0000000 magnetization 

 DIPCOR: dipole corrections for dipol
 direction  3 min pos   365,
 dipolmoment           0.000000      0.000000     -0.000307 electrons x Angstroem
 Tr[quadrupol]     -1833.027857

 energy correction for charged system         0.000000 eV
 dipol+quadrupol energy correction           -0.000000 eV
 added-field ion interaction          0.001239 eV  (added to PSCEN)


 Free energy of the ion-electron system (eV)
  ---------------------------------------------------
  alpha Z        PSCENC =        63.16230259
  Ewald energy   TEWEN  =     13154.85865409
  -Hartree energ DENC   =    -16376.91403790
  -exchange      EXHF   =         0.00000000
  -V(xc)+E(xc)   XCENC  =     -2050.78539860
  PAW double counting   =      5135.15659847    -2719.01140655
  entropy T*S    EENTRO =         0.00000000
  eigenvalues    EBANDS =      -487.59125178
  atomic energy  EATOM  =      3827.98814510
  Solvation  Ediel_sol  =         0.00000000
  ---------------------------------------------------
  free energy    TOTEN  =       546.86360542 eV

  energy without entropy =      546.86360542  energy(sigma->0) =      546.86360542


--------------------------------------------------------------------------------------------------------




--------------------------------------- Iteration      1(   3)  ---------------------------------------


    EDDIAG:  cpu time    0.4802: real time    0.5100
  RMM-DIIS:  cpu time    1.0464: real time    1.0468
    ORTHCH:  cpu time    0.0707: real time    0.0707
 BZINTS: Fermi energy:  0.346280;138.000000 electrons
         Band energy:-724.209266;  BLOECHL correction: -0.196046
       DOS:  cpu time    0.0032: real time    0.0032
    --------------------------------------------
      LOOP:  cpu time    1.6005: real time    1.6307

 eigenvalue-minimisations  :   510
 total energy-change (2. order) :-0.2366180E+03  (-0.3029871E+03)
 number of electron     138.0000000 magnetization 
 augmentation part      138.0000000 magnetization 

 DIPCOR: dipole corrections for dipol
 direction  3 min pos   365,
 dipolmoment           0.000000      0.000000     -0.000307 electrons x Angstroem
 Tr[quadrupol]     -1833.027857

 energy correction for charged system         0.000000 eV
 dipol+quadrupol energy correction           -0.000000 eV
 added-field ion interaction          0.001239 eV  (added to PSCEN)


 Free energy of the ion-electron system (eV)
  ---------------------------------------------------
  alpha Z        PSCENC =        63.16230259
  Ewald energy   TEWEN  =     13154.85865409
  -Hartree energ DENC   =    -16376.91403790
  -exchange      EXHF   =         0.00000000
  -V(xc)+E(xc)   XCENC  =     -2050.78539860
  PAW double counting   =      5135.15659847    -2719.01140655
  entropy T*S    EENTRO =         0.00000000
  eigenvalues    EBANDS =      -724.20926592
  atomic energy  EATOM  =      3827.98814510
  Solvation  Ediel_sol  =         0.00000000
  ---------------------------------------------------
  free energy    TOTEN  =       310.24559128 eV

  energy without entropy =      310.24559128  energy(sigma->0) =      310.24559128


--------------------------------------------------------------------------------------------------------




--------------------------------------- Iteration      1(   4)  ---------------------------------------


    EDDIAG:  cpu time    0.4849: real time    0.5121
  RMM-DIIS:  cpu time    1.0498: real time    1.0502
    ORTHCH:  cpu time    0.0707: real time    0.0707
 BZINTS: Fermi energy: -0.776412;138.000000 electrons
         Band energy:-898.963778;  BLOECHL correction: -0.146464
       DOS:  cpu time    0.0031: real time    0.0031
    --------------------------------------------
      LOOP:  cpu time    1.6085: real time    1.6360

 eigenvalue-minimisations  :   510
 total energy-change (2. order) :-0.1747545E+03  (-0.1500635E+03)
 number of electron     138.0000000 magnetization 
 augmentation part      138.0000000 magnetization 

 DIPCOR: dipole corrections for dipol
 direction  3 min pos   365,
 dipolmoment           0.000000      0.000000     -0.000307 electrons x Angstroem
 Tr[quadrupol]     -1833.027857

 energy correction for charged system         0.000000 eV
 dipol+quadrupol energy correction           -0.000000 eV
 added-field ion interaction          0.001239 eV  (added to PSCEN)


 Free energy of the ion-electron system (eV)
  ---------------------------------------------------
  alpha Z        PSCENC =        63.16230259
  Ewald energy   TEWEN  =     13154.85865409
  -Hartree energ DENC   =    -16376.91403790
  -exchange      EXHF   =         0.00000000
  -V(xc)+E(xc)   XCENC  =     -2050.78539860
  PAW double counting   =      5135.15659847    -2719.01140655
  entropy T*S    EENTRO =         0.00000000
  eigenvalues    EBANDS =      -898.96377812
  atomic energy  EATOM  =      3827.98814510
  Solvation  Ediel_sol  =         0.00000000
  ---------------------------------------------------
  free energy    TOTEN  =       135.49107908 eV

  energy without entropy =      135.49107908  energy(sigma->0) =      135.49107908


--------------------------------------------------------------------------------------------------------




--------------------------------------- Iteration      1(   5)  ---------------------------------------


    EDDIAG:  cpu time    0.4861: real time    0.5119
  RMM-DIIS:  cpu time    1.0582: real time    1.0585
    ORTHCH:  cpu time    0.0705: real time    0.0705
 BZINTS: Fermi energy: -1.220756;138.000000 electrons
         Band energy:***********;  BLOECHL correction: -0.088979
       DOS:  cpu time    0.0030: real time    0.0030
    --------------------------------------------
      LOOP:  cpu time    1.6178: real time    1.6439

 eigenvalue-minimisations  :   510
 total energy-change (2. order) :-0.1186749E+03  (-0.9467400E+02)
 number of electron     138.0000000 magnetization 
 augmentation part      138.0000000 magnetization 

 DIPCOR: dipole corrections for dipol
 direction  3 min pos   365,
 dipolmoment           0.000000      0.000000     -0.000307 electrons x Angstroem
 Tr[quadrupol]     -1833.027857

 energy correction for charged system         0.000000 eV
 dipol+quadrupol energy correction           -0.000000 eV
 added-field ion interaction          0.001239 eV  (added to PSCEN)


 Free energy of the ion-electron system (eV)
  ---------------------------------------------------
  alpha Z        PSCENC =        63.16230259
  Ewald energy   TEWEN  =     13154.85865409
  -Hartree energ DENC   =    -16376.91403790
  -exchange      EXHF   =         0.00000000
  -V(xc)+E(xc)   XCENC  =     -2050.78539860
  PAW double counting   =      5135.15659847    -2719.01140655
  entropy T*S    EENTRO =         0.00000000
  eigenvalues    EBANDS =     -1017.63864984
  atomic energy  EATOM  =      3827.98814510
  Solvation  Ediel_sol  =         0.00000000
  ---------------------------------------------------
  free energy    TOTEN  =        16.81620736 eV

  energy without entropy =       16.81620736  energy(sigma->0) =       16.81620736


--------------------------------------------------------------------------------------------------------




--------------------------------------- Iteration      1(   6)  ---------------------------------------


    EDDIAG:  cpu time    0.4885: real time    0.5138
  RMM-DIIS:  cpu time    1.0723: real time    1.0726
    ORTHCH:  cpu time    0.0714: real time    0.0714
 BZINTS: Fermi energy: -1.362693;138.000000 electrons
         Band energy:***********;  BLOECHL correction: -0.053294
       DOS:  cpu time    0.0030: real time    0.0030
    --------------------------------------------
      LOOP:  cpu time    1.6352: real time    1.6607

 eigenvalue-minimisations  :   510
 total energy-change (2. order) :-0.6289693E+02  (-0.4794829E+02)
 number of electron     138.0000000 magnetization 
 augmentation part      138.0000000 magnetization 

 DIPCOR: dipole corrections for dipol
 direction  3 min pos   365,
 dipolmoment           0.000000      0.000000     -0.000307 electrons x Angstroem
 Tr[quadrupol]     -1833.027857

 energy correction for charged system         0.000000 eV
 dipol+quadrupol energy correction           -0.000000 eV
 added-field ion interaction          0.001239 eV  (added to PSCEN)


 Free energy of the ion-electron system (eV)
  ---------------------------------------------------
  alpha Z        PSCENC =        63.16230259
  Ewald energy   TEWEN  =     13154.85865409
  -Hartree energ DENC   =    -16376.91403790
  -exchange      EXHF   =         0.00000000
  -V(xc)+E(xc)   XCENC  =     -2050.78539860
  PAW double counting   =      5135.15659847    -2719.01140655
  entropy T*S    EENTRO =         0.00000000
  eigenvalues    EBANDS =     -1080.53557799
  atomic energy  EATOM  =      3827.98814510
  Solvation  Ediel_sol  =         0.00000000
  ---------------------------------------------------
  free energy    TOTEN  =       -46.08072079 eV

  energy without entropy =      -46.08072079  energy(sigma->0) =      -46.08072079


--------------------------------------------------------------------------------------------------------




--------------------------------------- Iteration      1(   7)  ---------------------------------------


    EDDIAG:  cpu time    0.4898: real time    0.5145
  RMM-DIIS:  cpu time    1.0533: real time    1.0537
    ORTHCH:  cpu time    0.0709: real time    0.0709
 BZINTS: Fermi energy: -1.422694;138.000000 electrons
         Band energy:***********;  BLOECHL correction: -0.059492
       DOS:  cpu time    0.0030: real time    0.0030
    --------------------------------------------
      LOOP:  cpu time    1.6169: real time    1.6421

 eigenvalue-minimisations  :   510
 total energy-change (2. order) :-0.2619295E+02  (-0.1969012E+02)
 number of electron     138.0000000 magnetization 
 augmentation part      138.0000000 magnetization 

 DIPCOR: dipole corrections for dipol
 direction  3 min pos   365,
 dipolmoment           0.000000      0.000000     -0.000307 electrons x Angstroem
 Tr[quadrupol]     -1833.027857

 energy correction for charged system         0.000000 eV
 dipol+quadrupol energy correction           -0.000000 eV
 added-field ion interaction          0.001239 eV  (added to PSCEN)


 Free energy of the ion-electron system (eV)
  ---------------------------------------------------
  alpha Z        PSCENC =        63.16230259
  Ewald energy   TEWEN  =     13154.85865409
  -Hartree energ DENC   =    -16376.91403790
  -exchange      EXHF   =         0.00000000
  -V(xc)+E(xc)   XCENC  =     -2050.78539860
  PAW double counting   =      5135.15659847    -2719.01140655
  entropy T*S    EENTRO =         0.00000000
  eigenvalues    EBANDS =     -1106.72852431
  atomic energy  EATOM  =      3827.98814510
  Solvation  Ediel_sol  =         0.00000000
  ---------------------------------------------------
  free energy    TOTEN  =       -72.27366711 eV

  energy without entropy =      -72.27366711  energy(sigma->0) =      -72.27366711


--------------------------------------------------------------------------------------------------------




--------------------------------------- Iteration      1(   8)  ---------------------------------------


    EDDIAG:  cpu time    0.4879: real time    0.5106
  RMM-DIIS:  cpu time    1.0484: real time    1.0488
    ORTHCH:  cpu time    0.0710: real time    0.0710
 BZINTS: Fermi energy: -1.456177;138.000000 electrons
         Band energy:***********;  BLOECHL correction: -0.057401
       DOS:  cpu time    0.0030: real time    0.0030
    --------------------------------------------
      LOOP:  cpu time    1.6103: real time    1.6334

 eigenvalue-minimisations  :   510
 total energy-change (2. order) :-0.6430314E+01  (-0.5513569E+01)
 number of electron     138.0000000 magnetization 
 augmentation part      138.0000000 magnetization 

 DIPCOR: dipole corrections for dipol
 direction  3 min pos   365,
 dipolmoment           0.000000      0.000000     -0.000307 electrons x Angstroem
 Tr[quadrupol]     -1833.027857

 energy correction for charged system         0.000000 eV
 dipol+quadrupol energy correction           -0.000000 eV
 added-field ion interaction          0.001239 eV  (added to PSCEN)


 Free energy of the ion-electron system (eV)
  ---------------------------------------------------
  alpha Z        PSCENC =        63.16230259
  Ewald energy   TEWEN  =     13154.85865409
  -Hartree energ DENC   =    -16376.91403790
  -exchange      EXHF   =         0.00000000
  -V(xc)+E(xc)   XCENC  =     -2050.78539860
  PAW double counting   =      5135.15659847    -2719.01140655
  entropy T*S    EENTRO =         0.00000000
  eigenvalues    EBANDS =     -1113.15883802
  atomic energy  EATOM  =      3827.98814510
  Solvation  Ediel_sol  =         0.00000000
  ---------------------------------------------------
  free energy    TOTEN  =       -78.70398082 eV

  energy without entropy =      -78.70398082  energy(sigma->0) =      -78.70398082


--------------------------------------------------------------------------------------------------------




--------------------------------------- Iteration      1(   9)  ---------------------------------------


    EDDIAG:  cpu time    0.4845: real time    0.5100
  RMM-DIIS:  cpu time    2.7203: real time    2.7231
    ORTHCH:  cpu time    0.0704: real time    0.0704
 BZINTS: Fermi energy: -1.489687;138.000000 electrons
         Band energy:***********;  BLOECHL correction: -0.058184
       DOS:  cpu time    0.0031: real time    0.0031
    --------------------------------------------
      LOOP:  cpu time    3.2783: real time    3.3066

 eigenvalue-minimisations  :  1469
 total energy-change (2. order) :-0.2032679E+01  (-0.1967200E+01)
 number of electron     138.0000000 magnetization 
 augmentation part      138.0000000 magnetization 

 DIPCOR: dipole corrections for dipol
 direction  3 min pos   365,
 dipolmoment           0.000000      0.000000     -0.000307 electrons x Angstroem
 Tr[quadrupol]     -1833.027857

 energy correction for charged system         0.000000 eV
 dipol+quadrupol energy correction           -0.000000 eV
 added-field ion interaction          0.001239 eV  (added to PSCEN)


 Free energy of the ion-electron system (eV)
  ---------------------------------------------------
  alpha Z        PSCENC =        63.16230259
  Ewald energy   TEWEN  =     13154.85865409
  -Hartree energ DENC   =    -16376.91403790
  -exchange      EXHF   =         0.00000000
  -V(xc)+E(xc)   XCENC  =     -2050.78539860
  PAW double counting   =      5135.15659847    -2719.01140655
  entropy T*S    EENTRO =         0.00000000
  eigenvalues    EBANDS =     -1115.19151682
  atomic energy  EATOM  =      3827.98814510
  Solvation  Ediel_sol  =         0.00000000
  ---------------------------------------------------
  free energy    TOTEN  =       -80.73665962 eV

  energy without entropy =      -80.73665962  energy(sigma->0) =      -80.73665962


--------------------------------------------------------------------------------------------------------




--------------------------------------- Iteration      1(  10)  ---------------------------------------


    EDDIAG:  cpu time    0.4847: real time    0.5092
  RMM-DIIS:  cpu time    3.2324: real time    3.2336
    ORTHCH:  cpu time    0.0713: real time    0.0713
 BZINTS: Fermi energy: -1.493374;138.000000 electrons
         Band energy:***********;  BLOECHL correction: -0.057007
       DOS:  cpu time    0.0030: real time    0.0030
    --------------------------------------------
      LOOP:  cpu time    3.7915: real time    3.8171

 eigenvalue-minimisations  :  1743
 total energy-change (2. order) :-0.2925956E+00  (-0.3012783E+00)
 number of electron     138.0000000 magnetization 
 augmentation part      138.0000000 magnetization 

 DIPCOR: dipole corrections for dipol
 direction  3 min pos   365,
 dipolmoment           0.000000      0.000000     -0.000307 electrons x Angstroem
 Tr[quadrupol]     -1833.027857

 energy correction for charged system         0.000000 eV
 dipol+quadrupol energy correction           -0.000000 eV
 added-field ion interaction          0.001239 eV  (added to PSCEN)


 Free energy of the ion-electron system (eV)
  ---------------------------------------------------
  alpha Z        PSCENC =        63.16230259
  Ewald energy   TEWEN  =     13154.85865409
  -Hartree energ DENC   =    -16376.91403790
  -exchange      EXHF   =         0.00000000
  -V(xc)+E(xc)   XCENC  =     -2050.78539860
  PAW double counting   =      5135.15659847    -2719.01140655
  entropy T*S    EENTRO =         0.00000000
  eigenvalues    EBANDS =     -1115.48411245
  atomic energy  EATOM  =      3827.98814510
  Solvation  Ediel_sol  =         0.00000000
  ---------------------------------------------------
  free energy    TOTEN  =       -81.02925525 eV

  energy without entropy =      -81.02925525  energy(sigma->0) =      -81.02925525


--------------------------------------------------------------------------------------------------------




--------------------------------------- Iteration      1(  11)  ---------------------------------------


    EDDIAG:  cpu time    0.4841: real time    0.5089
  RMM-DIIS:  cpu time    3.1168: real time    3.1194
    ORTHCH:  cpu time    0.0714: real time    0.0715
 BZINTS: Fermi energy: -1.493924;138.000000 electrons
         Band energy:***********;  BLOECHL correction: -0.057002
       DOS:  cpu time    0.0030: real time    0.0030
    --------------------------------------------
      LOOP:  cpu time    3.6753: real time    3.7028

 eigenvalue-minimisations  :  1708
 total energy-change (2. order) : 0.1274413E-02  (-0.1638558E-01)
 number of electron     138.0000000 magnetization 
 augmentation part      138.0000000 magnetization 

 DIPCOR: dipole corrections for dipol
 direction  3 min pos   365,
 dipolmoment           0.000000      0.000000     -0.000307 electrons x Angstroem
 Tr[quadrupol]     -1833.027857

 energy correction for charged system         0.000000 eV
 dipol+quadrupol energy correction           -0.000000 eV
 added-field ion interaction          0.001239 eV  (added to PSCEN)


 Free energy of the ion-electron system (eV)
  ---------------------------------------------------
  alpha Z        PSCENC =        63.16230259
  Ewald energy   TEWEN  =     13154.85865409
  -Hartree energ DENC   =    -16376.91403790
  -exchange      EXHF   =         0.00000000
  -V(xc)+E(xc)   XCENC  =     -2050.78539860
  PAW double counting   =      5135.15659847    -2719.01140655
  entropy T*S    EENTRO =         0.00000000
  eigenvalues    EBANDS =     -1115.48283804
  atomic energy  EATOM  =      3827.98814510
  Solvation  Ediel_sol  =         0.00000000
  ---------------------------------------------------
  free energy    TOTEN  =       -81.02798084 eV

  energy without entropy =      -81.02798084  energy(sigma->0) =      -81.02798084


--------------------------------------------------------------------------------------------------------




--------------------------------------- Iteration      1(  12)  ---------------------------------------


    EDDIAG:  cpu time    0.4885: real time    0.5110
  RMM-DIIS:  cpu time    3.2500: real time    3.2508
    ORTHCH:  cpu time    0.0711: real time    0.0711
 BZINTS: Fermi energy: -1.493987;138.000000 electrons
         Band energy:***********;  BLOECHL correction: -0.057020
       DOS:  cpu time    0.0030: real time    0.0030
    CHARGE:  cpu time    0.1259: real time    0.1260
    MIXING:  cpu time    0.0033: real time    0.0034
    --------------------------------------------
      LOOP:  cpu time    3.9417: real time    3.9652

 eigenvalue-minimisations  :  1790
 total energy-change (2. order) :-0.2553964E-02  (-0.3224297E-02)
 number of electron     138.0000002 magnetization 
 augmentation part        5.2515518 magnetization 

 DIPCOR: dipole corrections for dipol
 direction  3 min pos   365,
 dipolmoment           0.000000      0.000000     -0.000307 electrons x Angstroem
 Tr[quadrupol]     -1833.027857

 energy correction for charged system         0.000000 eV
 dipol+quadrupol energy correction           -0.000000 eV
 added-field ion interaction          0.001239 eV  (added to PSCEN)


 Broyden mixing:
  rms(total) = 0.20002E+01    rms(broyden)= 0.19991E+01
  rms(prec ) = 0.20966E+01
  weight for this iteration     100.00

 Free energy of the ion-electron system (eV)
  ---------------------------------------------------
  alpha Z        PSCENC =        63.16230259
  Ewald energy   TEWEN  =     13154.85865409
  -Hartree energ DENC   =    -16376.91403790
  -exchange      EXHF   =         0.00000000
  -V(xc)+E(xc)   XCENC  =     -2050.78539860
  PAW double counting   =      5135.15659847    -2719.01140655
  entropy T*S    EENTRO =         0.00000000
  eigenvalues    EBANDS =     -1115.48539200
  atomic energy  EATOM  =      3827.98814510
  Solvation  Ediel_sol  =         0.00000000
  ---------------------------------------------------
  free energy    TOTEN  =       -81.03053480 eV

  energy without entropy =      -81.03053480  energy(sigma->0) =      -81.03053480


--------------------------------------------------------------------------------------------------------




--------------------------------------- Iteration      1(  13)  ---------------------------------------


    POTLOK:  cpu time    4.9296: real time    4.9519
    SETDIJ:  cpu time    0.1348: real time    0.1351
    EDDIAG:  cpu time    0.4866: real time    0.4872
  RMM-DIIS:  cpu time    2.6140: real time    2.6170
    ORTHCH:  cpu time    0.0711: real time    0.0711
 BZINTS: Fermi energy: -0.978315;138.000000 electrons
         Band energy:-934.560519;  BLOECHL correction: -0.046839
       DOS:  cpu time    0.0028: real time    0.0028
    CHARGE:  cpu time    0.1260: real time    0.1261
    MIXING:  cpu time    0.0035: real time    0.0036
    --------------------------------------------
      LOOP:  cpu time    8.3685: real time    8.3949

 eigenvalue-minimisations  :  1441
 total energy-change (2. order) : 0.1066634E+02  (-0.5988509E+01)
 number of electron     138.0000001 magnetization 
 augmentation part        4.4811752 magnetization 

 DIPCOR: dipole corrections for dipol
 direction  3 min pos   365,
 dipolmoment           0.000000      0.000000      0.160101 electrons x Angstroem
 Tr[quadrupol]     -1845.315422

 energy correction for charged system         0.000000 eV
 dipol+quadrupol energy correction           -0.000899 eV
 added-field ion interaction         -0.646297 eV  (added to PSCEN)


 Broyden mixing:
  rms(total) = 0.77361E+00    rms(broyden)= 0.77308E+00
  rms(prec ) = 0.85197E+00
  weight for this iteration     100.00

 eigenvalues of (default mixing * dielectric matrix)
  average eigenvalue GAMMA=   0.9536
  0.9536

 Free energy of the ion-electron system (eV)
  ---------------------------------------------------
  alpha Z        PSCENC =        62.51386756
  Ewald energy   TEWEN  =     13154.85865409
  -Hartree energ DENC   =    -16553.83281269
  -exchange      EXHF   =         0.00000000
  -V(xc)+E(xc)   XCENC  =     -2040.94084829
  PAW double counting   =      5555.33037034    -3141.72105595
  entropy T*S    EENTRO =         0.00000000
  eigenvalues    EBANDS =      -934.56051881
  atomic energy  EATOM  =      3827.98814510
  Solvation  Ediel_sol  =         0.00000000
  ---------------------------------------------------
  free energy    TOTEN  =       -70.36419865 eV

  energy without entropy =      -70.36419865  energy(sigma->0) =      -70.36419865


--------------------------------------------------------------------------------------------------------




--------------------------------------- Iteration      1(  14)  ---------------------------------------


    POTLOK:  cpu time    4.9106: real time    4.9381
    SETDIJ:  cpu time    0.1351: real time    0.1352
    EDDIAG:  cpu time    0.4731: real time    0.4736
  RMM-DIIS:  cpu time    2.9271: real time    2.9295
    ORTHCH:  cpu time    0.0699: real time    0.0700
 BZINTS: Fermi energy: -0.738396;138.000000 electrons
         Band energy:-959.175794;  BLOECHL correction: -0.105874
       DOS:  cpu time    0.0030: real time    0.0030
    CHARGE:  cpu time    0.1277: real time    0.1277
    MIXING:  cpu time    0.0054: real time    0.0054
    --------------------------------------------
      LOOP:  cpu time    8.6520: real time    8.6825

 eigenvalue-minimisations  :  1616
 total energy-change (2. order) :-0.7063688E+01  (-0.4032729E+00)
 number of electron     138.0000001 magnetization 
 augmentation part        4.4157755 magnetization 

 DIPCOR: dipole corrections for dipol
 direction  3 min pos   377,
 dipolmoment           0.000000      0.000000     -1.339392 electrons x Angstroem
 Tr[quadrupol]     -1837.061023

 energy correction for charged system         0.000000 eV
 dipol+quadrupol energy correction           -0.062912 eV
 added-field ion interaction         -4.743966 eV  (added to PSCEN)


 Broyden mixing:
  rms(total) = 0.69352E+00    rms(broyden)= 0.69348E+00
  rms(prec ) = 0.17494E+01
  weight for this iteration     100.00

 eigenvalues of (default mixing * dielectric matrix)
  average eigenvalue GAMMA=   1.0228
  1.0228  1.0228

 Free energy of the ion-electron system (eV)
  ---------------------------------------------------
  alpha Z        PSCENC =        58.35418516
  Ewald energy   TEWEN  =     13154.85865409
  -Hartree energ DENC   =    -16534.23938113
  -exchange      EXHF   =         0.00000000
  -V(xc)+E(xc)   XCENC  =     -2038.80342512
  PAW double counting   =      5724.87278127    -3311.28305206
  entropy T*S    EENTRO =         0.00000000
  eigenvalues    EBANDS =      -959.17579421
  atomic energy  EATOM  =      3827.98814510
  Solvation  Ediel_sol  =         0.00000000
  ---------------------------------------------------
  free energy    TOTEN  =       -77.42788689 eV

  energy without entropy =      -77.42788689  energy(sigma->0) =      -77.42788689


--------------------------------------------------------------------------------------------------------




--------------------------------------- Iteration      1(  15)  ---------------------------------------


    POTLOK:  cpu time    5.0938: real time    5.1217
    SETDIJ:  cpu time    0.1481: real time    0.1481
    EDDIAG:  cpu time    0.4806: real time    0.4818
  RMM-DIIS:  cpu time    2.6364: real time    2.6413
    ORTHCH:  cpu time    0.0706: real time    0.0706
 BZINTS: Fermi energy: -1.030738;138.000000 electrons
         Band energy:-916.123096;  BLOECHL correction: -0.059091
       DOS:  cpu time    0.0030: real time    0.0030
    CHARGE:  cpu time    0.1266: real time    0.1267
    MIXING:  cpu time    0.0036: real time    0.0036
    --------------------------------------------
      LOOP:  cpu time    8.5627: real time    8.5969

 eigenvalue-minimisations  :  1426
 total energy-change (2. order) : 0.7032868E+01  (-0.1495540E+00)
 number of electron     138.0000001 magnetization 
 augmentation part        4.3733976 magnetization 

 DIPCOR: dipole corrections for dipol
 direction  3 min pos   385,
 dipolmoment           0.000000      0.000000      0.087931 electrons x Angstroem
 Tr[quadrupol]     -1845.807304

 energy correction for charged system         0.000000 eV
 dipol+quadrupol energy correction           -0.000271 eV
 added-field ion interaction          0.755712 eV  (added to PSCEN)


 Broyden mixing:
  rms(total) = 0.51150E+00    rms(broyden)= 0.51148E+00
  rms(prec ) = 0.72577E+00
  weight for this iteration     100.00

 eigenvalues of (default mixing * dielectric matrix)
  average eigenvalue GAMMA=   1.0889
  1.9573  1.1616  0.1477

 Free energy of the ion-electron system (eV)
  ---------------------------------------------------
  alpha Z        PSCENC =        63.91650434
  Ewald energy   TEWEN  =     13154.85865409
  -Hartree energ DENC   =    -16576.18953072
  -exchange      EXHF   =         0.00000000
  -V(xc)+E(xc)   XCENC  =     -2038.45452827
  PAW double counting   =      5753.32198988    -3339.71315732
  entropy T*S    EENTRO =         0.00000000
  eigenvalues    EBANDS =      -916.12309620
  atomic energy  EATOM  =      3827.98814510
  Solvation  Ediel_sol  =         0.00000000
  ---------------------------------------------------
  free energy    TOTEN  =       -70.39501909 eV

  energy without entropy =      -70.39501909  energy(sigma->0) =      -70.39501909


--------------------------------------------------------------------------------------------------------




--------------------------------------- Iteration      1(  16)  ---------------------------------------


    POTLOK:  cpu time    4.9199: real time    4.9463
    SETDIJ:  cpu time    0.1347: real time    0.1347
    EDDIAG:  cpu time    0.4730: real time    0.4735
  RMM-DIIS:  cpu time    2.7213: real time    2.7220
    ORTHCH:  cpu time    0.0711: real time    0.0711
 BZINTS: Fermi energy: -0.693845;138.000000 electrons
         Band energy:-899.268990;  BLOECHL correction: -0.056412
       DOS:  cpu time    0.0029: real time    0.0029
    CHARGE:  cpu time    0.1260: real time    0.1260
    MIXING:  cpu time    0.0045: real time    0.0045
    --------------------------------------------
      LOOP:  cpu time    8.4534: real time    8.4811

 eigenvalue-minimisations  :  1492
 total energy-change (2. order) : 0.8288457E+00  (-0.1016407E+00)
 number of electron     138.0000001 magnetization 
 augmentation part        4.4416125 magnetization 

 DIPCOR: dipole corrections for dipol
 direction  3 min pos   389,
 dipolmoment           0.000000      0.000000     -0.286558 electrons x Angstroem
 Tr[quadrupol]     -1848.677283

 energy correction for charged system         0.000000 eV
 dipol+quadrupol energy correction           -0.002880 eV
 added-field ion interaction         -3.186691 eV  (added to PSCEN)


 Broyden mixing:
  rms(total) = 0.19424E+00    rms(broyden)= 0.19421E+00
  rms(prec ) = 0.27893E+00
  weight for this iteration     100.00

 eigenvalues of (default mixing * dielectric matrix)
  average eigenvalue GAMMA=   1.0753
  2.4142  0.9516  0.7836  0.1517

 Free energy of the ion-electron system (eV)
  ---------------------------------------------------
  alpha Z        PSCENC =        59.97149216
  Ewald energy   TEWEN  =     13154.85865409
  -Hartree energ DENC   =    -16589.99986596
  -exchange      EXHF   =         0.00000000
  -V(xc)+E(xc)   XCENC  =     -2036.93247172
  PAW double counting   =      5889.98948552    -3476.17262217
  entropy T*S    EENTRO =         0.00000000
  eigenvalues    EBANDS =      -899.26899037
  atomic energy  EATOM  =      3827.98814510
  Solvation  Ediel_sol  =         0.00000000
  ---------------------------------------------------
  free energy    TOTEN  =       -69.56617335 eV

  energy without entropy =      -69.56617335  energy(sigma->0) =      -69.56617335


--------------------------------------------------------------------------------------------------------




--------------------------------------- Iteration      1(  17)  ---------------------------------------


    POTLOK:  cpu time    4.9348: real time    4.9541
    SETDIJ:  cpu time    0.1344: real time    0.1344
    EDDIAG:  cpu time    0.4745: real time    0.4751
  RMM-DIIS:  cpu time    2.4813: real time    2.4820
    ORTHCH:  cpu time    0.0695: real time    0.0695
 BZINTS: Fermi energy: -0.647043;138.000000 electrons
         Band energy:-890.087272;  BLOECHL correction: -0.069257
       DOS:  cpu time    0.0030: real time    0.0030
    CHARGE:  cpu time    0.1258: real time    0.1259
    MIXING:  cpu time    0.0045: real time    0.0045
    --------------------------------------------
      LOOP:  cpu time    8.2278: real time    8.2484

 eigenvalue-minimisations  :  1361
 total energy-change (2. order) : 0.1387016E+00  (-0.2710021E-01)
 number of electron     138.0000001 magnetization 
 augmentation part        4.4415073 magnetization 

 DIPCOR: dipole corrections for dipol
 direction  3 min pos   388,
 dipolmoment           0.000000      0.000000     -0.504577 electrons x Angstroem
 Tr[quadrupol]     -1847.818625

[...]
  0.015  -0.001   0.000   0.052   0.000  -0.000  -0.003  -0.000  -0.000  -0.000   0.011  -0.000   0.000
  0.000   0.000  -0.001   0.000   0.078   0.000  -0.000  -0.004  -0.003   0.000  -0.000   0.004   0.000
  0.000   0.000  -0.004  -0.000   0.000   0.000   0.000  -0.000  -0.000  -0.000  -0.000  -0.000   0.000
 -0.003   0.000  -0.000  -0.003  -0.000   0.000   0.000   0.000  -0.000   0.000  -0.001   0.000  -0.000
 -0.000  -0.000   0.000  -0.000  -0.004  -0.000   0.000   0.000   0.000  -0.000   0.000  -0.000  -0.000
  0.001   0.000   0.000  -0.000  -0.003  -0.000  -0.000   0.000   0.003  -0.000   0.000  -0.000   0.000
 -0.000   0.000   0.004  -0.000   0.000  -0.000   0.000  -0.000  -0.000   0.002   0.000   0.000  -0.000
 -0.022   0.000   0.000   0.011  -0.000  -0.000  -0.001   0.000   0.000   0.000   0.004  -0.000   0.000
  0.000   0.000   0.000  -0.000   0.004  -0.000   0.000  -0.000  -0.000   0.000  -0.000   0.002  -0.000
 -0.001  -0.000  -0.003   0.000   0.000   0.000  -0.000  -0.000   0.000  -0.000   0.000  -0.000   0.003


------------------------ aborting loop because EDIFF is reached ----------------------------------------


    CHARGE:  cpu time    0.3661: real time    0.3661
    FORLOC:  cpu time    0.0403: real time    0.0403
    FORNL :  cpu time    0.6872: real time    0.6874
    STRESS:  cpu time    2.0750: real time    2.0756
    FORCOR:  cpu time    4.9447: real time    4.9478
    FORHAR:  cpu time    0.0727: real time    0.0728
    MIXING:  cpu time    0.0072: real time    0.0072
    OFIELD:  cpu time    0.0001: real time    0.0001

  FORCE on cell =-STRESS in cart. coord.  units (eV):
  Direction    XX          YY          ZZ          XY          YZ          ZX
  --------------------------------------------------------------------------------------
  Alpha Z    63.16106    63.16106    63.16106
  Ewald   14720.85107 14407.21424-15973.21663  -141.42776   111.94237    62.29451
  Hartree 15584.99628 15390.61010-14352.99517   -96.87476    12.17807    29.27888
  E(xc)    -445.67406  -446.28132  -444.12479    -0.12008     0.69969     0.13454
  Local  -31262.36781-30781.98885 29377.30311   235.57284   -83.83716   -80.11126
  n-local   119.46516   119.13481   109.47336    -0.15875     0.57550     0.60683
  augment    44.04679    45.76568    44.59371     0.11657    -2.74339    -0.82438
  Kinetic  1167.00677  1194.96474  1175.51314     2.54762   -39.59331   -11.03149
  Fock        0.00000     0.00000     0.00000     0.00000     0.00000     0.00000
  -------------------------------------------------------------------------------------
  Total      -8.51473    -7.41953    -0.29220    -0.34431    -0.77823     0.34763
  in kB      -5.28773    -4.60760    -0.18146    -0.21382    -0.48329     0.21588
  external pressure =       -3.36 kB  Pullay stress =        0.00 kB


 VOLUME and BASIS-vectors are now :
 -----------------------------------------------------------------------------
  energy-cutoff  :      520.00
  volume of cell :     2579.96
      direct lattice vectors                 reciprocal lattice vectors
     9.555752754  0.000000000  0.000000000     0.104649003  0.060419130  0.000000000
    -4.777876377  8.275524637  0.000000000     0.000000000  0.120838260  0.000000000
     0.000000000  0.000000000 32.625095367     0.000000000  0.000000000  0.030651251

  length of vectors
     9.555752754  9.555752754 32.625095367     0.120838260  0.120838260  0.030651251


 FORCES acting on ions
    electron-ion (+dipol)            ewald-force                    non-local-force                 convergence-correction
 -----------------------------------------------------------------------------------------------
   0.317E-01 -.492E-01 0.123E+03   -.920E-02 0.155E-01 -.122E+03   -.120E-01 0.301E-01 -.816E+00   0.421E-05 -.518E-05 -.343E-03
   0.276E+00 -.409E+00 0.571E+02   -.182E+00 0.422E+00 -.572E+02   -.810E-01 -.266E-02 0.996E-01   -.205E-05 -.435E-05 -.230E-02
   0.161E+01 -.717E+01 -.263E+01   -.160E+01 0.744E+01 0.186E+01   -.170E-01 -.268E+00 0.765E+00   0.197E-05 -.420E-04 -.431E-03
   -.216E-01 0.471E-02 0.123E+03   -.331E-03 -.882E-02 -.122E+03   0.177E-03 -.302E-02 -.869E+00   -.396E-05 0.503E-05 -.341E-03
   -.152E+00 0.109E+00 0.569E+02   0.186E+00 -.150E+00 -.571E+02   -.291E-01 0.406E-01 0.128E+00   0.199E-05 0.878E-05 -.230E-02
   -.738E+01 -.197E+01 -.139E+02   0.744E+01 0.199E+01 0.137E+02   -.576E-01 -.222E-01 0.141E+00   -.182E-04 0.230E-04 -.754E-03
   0.840E-02 0.795E-01 0.123E+03   0.965E-02 -.678E-02 -.122E+03   0.867E-02 -.467E-01 -.815E+00   -.167E-05 -.627E-06 -.340E-03
   -.451E+00 0.773E-01 0.578E+02   0.443E+00 -.335E-01 -.578E+02   0.123E-01 -.332E-01 0.624E-01   -.546E-06 -.461E-05 -.228E-02
   -.244E+02 -.887E+01 -.557E+01   0.249E+02 0.919E+01 0.493E+01   -.494E+00 -.314E+00 0.635E+00   -.454E-04 -.177E-04 -.693E-03
   -.179E-01 0.709E-02 0.123E+03   0.778E-02 0.364E-02 -.122E+03   -.356E-02 -.621E-02 -.820E+00   -.450E-05 -.617E-05 -.342E-03
   -.147E+00 -.148E+00 0.568E+02   0.132E+00 0.949E-01 -.570E+02   0.247E-02 0.472E-01 0.182E+00   0.922E-05 -.546E-05 -.229E-02
   -.424E+00 -.154E+01 -.577E+01   0.268E+00 0.143E+01 0.532E+01   0.140E+00 0.120E+00 0.434E+00   -.314E-05 0.126E-06 -.804E-03
   0.252E-01 -.451E-01 0.123E+03   -.108E-01 -.349E-02 -.122E+03   -.155E-01 0.300E-01 -.852E+00   -.524E-06 -.791E-05 -.348E-03
   0.313E+00 0.682E-01 0.574E+02   -.321E+00 -.142E+00 -.575E+02   0.117E-01 0.658E-01 0.573E-01   0.291E-05 0.117E-04 -.229E-02
   0.569E+01 0.213E+01 -.211E+02   -.568E+01 -.293E+01 0.204E+02   0.113E-01 0.800E+00 0.656E+00   0.275E-04 0.304E-04 -.698E-03
   -.509E-01 -.100E-01 0.123E+03   -.103E-02 -.263E-02 -.122E+03   0.274E-01 0.411E-02 -.761E+00   -.136E-04 0.321E-05 -.342E-03
   0.888E-02 0.190E+00 0.571E+02   -.295E-01 -.917E-01 -.572E+02   0.173E-01 -.873E-01 0.305E-01   0.429E-05 0.345E-05 -.229E-02
   0.101E+01 0.780E+01 -.676E+01   -.158E+01 -.765E+01 0.632E+01   0.573E+00 -.160E+00 0.424E+00   0.149E-04 -.174E-04 -.412E-03
   0.139E-01 0.536E-01 0.123E+03   0.151E-02 0.113E-01 -.122E+03   -.146E-01 -.187E-01 -.832E+00   0.236E-06 0.165E-05 -.341E-03
   -.140E+00 -.128E+00 0.568E+02   0.655E-01 0.113E+00 -.570E+02   0.702E-01 0.981E-02 0.203E+00   -.740E-05 -.117E-04 -.229E-02
   -.737E+00 0.363E+01 -.143E+02   0.831E+00 -.373E+01 0.141E+02   -.807E-01 0.107E+00 0.241E+00   0.173E-05 -.972E-05 -.719E-03
   0.523E-01 -.856E-01 0.123E+03   0.112E-01 -.135E-01 -.122E+03   -.392E-01 0.520E-01 -.781E+00   0.463E-05 0.759E-05 -.344E-03
   -.127E+00 0.485E+00 0.577E+02   0.131E+00 -.478E+00 -.578E+02   -.450E-02 0.186E-02 0.839E-01   -.471E-05 0.811E-05 -.228E-02
   0.191E+01 0.226E+02 -.261E+01   -.199E+01 -.230E+02 0.200E+01   0.827E-01 0.326E+00 0.619E+00   -.162E-04 0.591E-04 -.379E-03
   -.296E-01 -.275E-01 0.123E+03   -.856E-02 0.444E-02 -.122E+03   0.309E-01 0.449E-01 -.799E+00   0.150E-04 0.215E-05 -.347E-03
   0.416E+00 -.253E+00 0.581E+02   -.396E+00 0.253E+00 -.581E+02   -.269E-01 -.737E-02 0.310E-01   -.399E-05 -.612E-05 -.228E-02
   0.240E+02 -.145E+02 -.572E+01   -.239E+02 0.150E+02 0.522E+01   -.429E-01 -.542E+00 0.515E+00   0.336E-04 -.280E-04 -.687E-03
   0.149E+00 0.128E-01 0.905E+02   -.120E+00 -.118E-01 -.904E+02   -.286E-01 0.259E-02 0.989E-02   -.737E-05 -.414E-05 -.176E-02
   0.621E-02 -.353E-02 0.227E+02   -.774E-01 0.127E+00 -.228E+02   0.729E-01 -.135E+00 0.140E+00   -.552E-05 -.773E-06 -.186E-02
   -.523E-01 0.704E-01 0.906E+02   0.699E-01 -.856E-01 -.905E+02   -.754E-02 0.287E-01 -.444E-01   -.446E-05 0.336E-05 -.176E-02
   -.248E+01 0.210E+00 0.233E+02   0.245E+01 -.259E+00 -.235E+02   0.358E-01 0.616E-01 0.158E+00   -.908E-05 0.107E-04 -.185E-02
   0.648E-01 -.129E+00 0.906E+02   -.150E-01 0.973E-01 -.906E+02   -.571E-01 0.418E-01 -.416E-01   0.329E-05 -.423E-05 -.176E-02
   -.663E+00 -.196E+01 0.252E+02   0.676E+00 0.190E+01 -.251E+02   -.691E-02 0.618E-01 -.241E-01   0.232E-05 -.180E-04 -.185E-02
   -.125E+00 0.254E-01 0.906E+02   0.645E-01 -.198E-01 -.905E+02   0.540E-01 0.662E-02 -.413E-01   0.504E-05 -.678E-05 -.175E-02
   0.645E+00 0.135E+01 0.243E+02   -.754E+00 -.138E+01 -.245E+02   0.104E+00 0.205E-01 0.211E+00   0.208E-04 0.830E-05 -.185E-02
   0.144E+00 -.421E-01 0.906E+02   -.131E+00 0.112E-01 -.905E+02   -.224E-01 0.348E-01 -.910E-01   -.603E-05 0.479E-05 -.175E-02
   0.270E+01 -.618E-01 0.248E+02   -.256E+01 -.451E-01 -.249E+02   -.150E+00 0.114E+00 0.114E+00   0.882E-05 0.127E-04 -.189E-02
   -.736E-01 -.316E-01 0.906E+02   0.499E-01 0.292E-01 -.905E+02   0.128E-01 -.745E-02 -.213E-01   -.561E-05 -.167E-05 -.175E-02
   -.189E+00 0.458E+00 0.231E+02   0.238E+00 -.459E+00 -.232E+02   -.515E-01 -.132E-01 0.120E+00   -.415E-05 -.596E-05 -.185E-02
   -.368E-01 0.385E-01 0.904E+02   0.419E-01 -.242E-01 -.904E+02   -.154E-01 0.504E-02 -.285E-01   0.230E-05 0.294E-05 -.176E-02
   -.692E+00 0.127E+01 0.245E+02   0.799E+00 -.128E+01 -.245E+02   -.109E+00 0.140E-01 0.628E-01   -.157E-04 0.121E-04 -.185E-02
   -.384E-01 0.153E+00 0.907E+02   0.499E-01 -.113E+00 -.906E+02   -.124E-01 -.374E-01 0.122E-01   0.107E-04 0.239E-06 -.176E-02
   -.274E+00 0.834E+00 0.297E+02   0.286E+00 -.743E+00 -.298E+02   -.429E-03 -.999E-01 0.780E-01   0.414E-07 -.337E-05 -.186E-02
   0.508E-01 -.224E+00 0.906E+02   -.515E-01 0.187E+00 -.905E+02   0.131E-02 0.469E-01 -.120E-01   0.245E-05 0.554E-05 -.176E-02
   0.874E+00 -.209E+01 0.240E+02   -.928E+00 0.217E+01 -.241E+02   0.481E-01 -.669E-01 0.151E+00   0.230E-05 -.155E-04 -.184E-02
   0.256E+02 0.413E+02 -.274E+03   -.340E+02 -.654E+02 0.246E+03   0.832E+01 0.241E+02 0.282E+02   0.523E-05 -.991E-04 0.174E-02
   0.276E+02 0.249E+02 -.428E+03   -.387E+02 -.469E+02 0.462E+03   0.112E+02 0.220E+02 -.337E+02   -.228E-04 -.290E-04 0.240E-02
   -.193E+02 0.145E+02 -.423E+03   0.544E+01 -.429E+02 0.450E+03   0.139E+02 0.284E+02 -.268E+02   0.178E-04 -.722E-04 0.247E-02
   0.587E+02 -.203E+01 -.301E+03   -.733E+02 -.198E+02 0.272E+03   0.146E+02 0.218E+02 0.296E+02   -.937E-04 0.660E-04 0.172E-02
   0.993E+01 -.879E+01 -.112E+03   -.996E+01 0.907E+00 0.863E+02   0.550E-01 0.787E+01 0.260E+02   -.935E-04 -.439E-04 -.450E-03
   -.268E+02 0.992E+02 -.295E+03   0.136E+02 -.133E+03 0.280E+03   0.132E+02 0.342E+02 0.151E+02   0.289E-04 -.169E-03 0.173E-02
   0.428E+02 -.350E+02 -.977E+02   -.482E+02 0.395E+02 0.101E+03   0.544E+01 -.453E+01 -.375E+01   0.273E-05 -.825E-05 0.365E-03
   -.550E+02 -.661E+01 -.973E+02   0.622E+02 0.691E+01 0.101E+03   -.715E+01 -.306E+00 -.363E+01   0.399E-05 -.514E-05 0.361E-03
   -.329E+02 -.626E+02 -.575E+02   0.371E+02 0.695E+02 0.570E+02   -.416E+01 -.682E+01 0.512E+00   0.398E-06 0.924E-05 0.360E-03
   0.198E+02 0.184E+02 0.318E+02   -.216E+02 -.201E+02 -.386E+02   0.182E+01 0.170E+01 0.675E+01   -.128E-04 -.778E-05 0.236E-03
   -.423E+02 -.783E+02 -.761E+02   0.459E+02 0.855E+02 0.771E+02   -.361E+01 -.716E+01 -.103E+01   0.201E-04 0.310E-04 0.403E-03
   -.298E+01 0.869E+01 0.343E+02   0.280E+01 -.968E+01 -.413E+02   0.183E+00 0.987E+00 0.689E+01   -.824E-06 -.825E-05 0.229E-03
   0.447E+02 -.621E+02 -.115E+03   -.484E+02 0.677E+02 0.120E+03   0.373E+01 -.558E+01 -.459E+01   -.203E-04 0.231E-04 0.364E-03
   -.519E+02 0.716E+01 -.891E+02   0.589E+02 -.839E+01 0.917E+02   -.692E+01 0.123E+01 -.257E+01   -.160E-04 0.628E-05 0.350E-03
   0.984E+00 -.260E+02 -.119E+03   -.800E+00 0.283E+02 0.126E+03   -.178E+00 -.223E+01 -.750E+01   -.112E-04 0.326E-05 0.156E-03
   0.236E+01 0.412E+01 -.219E+02   -.233E+01 -.420E+01 0.225E+02   -.320E-01 0.728E-01 -.565E+00   0.216E-04 0.397E-05 -.122E-03
   0.326E+02 -.330E+02 -.846E+02   -.374E+02 0.383E+02 0.872E+02   0.483E+01 -.530E+01 -.268E+01   -.681E-05 -.351E-05 0.350E-03
   -.825E+02 -.143E+02 -.782E+02   0.901E+02 0.164E+02 0.802E+02   -.763E+01 -.209E+01 -.202E+01   0.358E-04 -.142E-04 0.330E-03
 -----------------------------------------------------------------------------------------------
   -.475E+02 -.109E+03 -.230E+02   -.426E-13 0.284E-13 -.583E-12   0.475E+02 0.109E+03 0.230E+02   -.145E-03 -.320E-03 -.488E-01
 
 
 POSITION                                       TOTAL-FORCE (eV/Angst)
 -----------------------------------------------------------------------------------
      0.00000      0.00000      0.00000         0.010677     -0.003904      0.005704
      9.54478      0.01564      5.16208         0.013703      0.010688      0.010061
     -0.04373      0.11492     10.74932        -0.005470     -0.002911     -0.010497
     -1.59263      2.75851      0.00000        -0.021500     -0.007332     -0.026924
     -1.60419      2.78304      5.15564         0.004993     -0.000740     -0.011412
      7.90428      2.79261     10.19129         0.001817     -0.005731      0.018863
     -3.18525      5.51702      0.00000         0.026937      0.025757     -0.034198
     -3.19007      5.54630      5.13597         0.004586      0.010436      0.007128
     -3.21483      5.57296     10.26537         0.005873      0.008735     -0.011809
      3.18525      0.00000      0.00000        -0.013441      0.004307     -0.011247
      3.17672      0.01408      5.14049        -0.012167     -0.006115     -0.000860
      3.10721      0.06002     10.11238        -0.016068      0.008583     -0.008497
      1.59263      2.75851      0.00000        -0.000839     -0.018793     -0.013473
      1.57964      2.75905      5.12686         0.004397     -0.008221     -0.016987
      1.50201      2.76024     10.21816         0.018570     -0.003597      0.002868
     -0.00000      5.51702      0.00000        -0.024311     -0.008717     -0.010208
     -0.02546      5.54956      5.15544        -0.003059      0.010352      0.000856
     -0.13846      5.57708     10.77922         0.002146     -0.014692     -0.014128
      6.37050      0.00000      0.00000         0.001081      0.045983     -0.007303
      6.35178      0.01092      5.15323        -0.003637     -0.005022     -0.008146
      6.35140      0.07141     10.25555         0.013953      0.002030      0.009216
      4.77788      2.75851      0.00000         0.024454     -0.047374     -0.020861
      4.76577      2.77333      5.16560        -0.000046      0.008390     -0.002056
      4.70768      2.68098     10.85579        -0.006032     -0.018020      0.011795
      3.18525      5.51702      0.00000        -0.007012      0.021629     -0.042524
      3.18385      5.54581      5.12169        -0.006507     -0.007585     -0.012790
      3.07844      5.61048     10.23211        -0.004898      0.005742      0.006829
      0.00000      1.83901      2.60418         0.000596      0.003337      0.030953
     -0.02584      1.85494      7.71181         0.001872     -0.011745      0.005849
     -1.59263      4.59751      2.60418         0.010234      0.013292      0.032421
     -1.59339      4.65216      7.75146         0.005074      0.011680      0.004730
     -3.18525      7.35602      2.60418        -0.007095      0.010292     -0.014528
     -3.24476      7.38338      7.71247         0.006171      0.002044      0.010712
      3.18525      1.83901      2.60418        -0.005893      0.012073      0.036585
      3.18176      1.93070      7.72781        -0.004406     -0.007724      0.000653
      1.59263      4.59751      2.60418        -0.008419      0.003717      0.013749
      1.58375      4.62788      7.62102        -0.016327      0.007330     -0.000627
      0.00000      7.35602      2.60418        -0.010741     -0.009992      0.030146
     -0.00049      7.34358      7.74902        -0.001607     -0.014180      0.002061
      6.37050      1.83901      2.60418        -0.010117      0.019112      0.013568
      6.32150      1.88919      7.71591        -0.000841     -0.000990     -0.001802
      4.77788      4.59751      2.60418        -0.000584      0.002310      0.059541
      4.75909      4.62704      7.66711         0.011175     -0.009792     -0.015112
      3.18525      7.35602      2.60418         0.000837      0.009689      0.027743
      3.19015      7.39392      7.76085        -0.004952      0.012368      0.001002
      4.75602      8.20717     12.91880        -0.000130     -0.004839      0.004986
     -1.89902      7.90210     13.45257        -0.000858     -0.006551      0.031290
      7.31864      1.80512     13.53054        -0.000202     -0.007189      0.037418
      4.60084      2.23170     13.06973         0.010347     -0.022430      0.003045
      4.66047      4.73969     11.26652         0.020502     -0.008622     -0.047934
     -0.02064      5.85218     12.91533        -0.005847     -0.006785      0.006145
      8.88464      0.50030     13.39540        -0.006858      0.000090     -0.008637
     -3.92999      8.26600     13.37921         0.003627     -0.002785     -0.007554
      3.38885      0.46695     13.36952         0.000905      0.001578     -0.010687
     -2.13572      7.69060     12.50061        -0.011308     -0.008408     -0.017357
      7.75671      2.67745     13.63762         0.000195      0.005915     -0.011747
      7.30302      1.68781     12.52592         0.002844     -0.006298     -0.028806
      4.17379      2.90841     13.63399        -0.005292      0.009566      0.013705
      5.52404      2.09091     13.43068         0.007915     -0.003122     -0.008979
      4.68106      5.01459     12.20963         0.005275     -0.002844      0.015198
      1.58723      4.58019     10.97403        -0.000235     -0.009044      0.000887
     -0.62832      6.55955     13.26591        -0.005819      0.001138     -0.008747
      0.88618      6.12371     13.16537         0.011761      0.013932     -0.009270
 -----------------------------------------------------------------------------------
    total drift:                               -0.014086      0.013015     -0.018856


--------------------------------------------------------------------------------------------------------



  FREE ENERGIE OF THE ION-ELECTRON SYSTEM (eV)
  ---------------------------------------------------
  free  energy   TOTEN  =       -69.39345379 eV

  energy  without entropy=      -69.39345379  energy(sigma->0) =      -69.39345379
 


--------------------------------------------------------------------------------------------------------


    POTLOK:  cpu time    5.1954: real time    5.1967


--------------------------------------------------------------------------------------------------------


 stress matrix after NEB project (eV)
     -8.51473     -0.34431      0.34763
     -0.34431     -7.41953     -0.77823
      0.34763     -0.77823     -0.29220
  FORCES: max atom, RMS     0.052843    0.015810
  FORCE total and by dimension    0.125490    0.047934
  Stress total and by dimension   11.372137    8.514729
     LOOP+:  cpu time  223.3474: real time  225.0776
 vacuum level on the upper side and lower side of the slab         2.033         3.288
    4ORBIT:  cpu time    0.0000: real time    0.0000
 BZINTS: Fermi energy: -0.509225;138.000000 electrons
         Band energy:-874.089490;  BLOECHL correction: -0.069577

 total amount of memory used by VASP MPI-rank0    62199. kBytes
=======================================================================

   base      :      30000. kBytes
   nonlr-proj:       6296. kBytes
   fftplans  :       6459. kBytes
   grid      :      11407. kBytes
   one-center:         24. kBytes
   wavefun   :       8013. kBytes
 
  
  
 General timing and accounting informations for this job:
 ========================================================
  
                  Total CPU time used (sec):      269.340
                            User time (sec):      261.088
                          System time (sec):        8.253
                         Elapsed time (sec):      280.927
  
                   Maximum memory used (kb):      269136.
                   Average memory used (kb):           0.
  
                          Minor page faults:       202135
                          Major page faults:            0
                 Voluntary context switches:        73292
