 running on   72 total cores
 distrk:  each k-point on   72 cores,    1 groups
 distr:  one band on   24 cores,    3 groups
 using from now: INCAR     
 vasp.5.4.4.18Apr17-6-g9f103f2a35 (build Jun 08 2018 12:06:12) complex          
  
 POSCAR found type information on POSCAR  Mg O  H 
 POSCAR found :  3 types and      63 ions
 scaLAPACK will be used

 ----------------------------------------------------------------------------- 
|                                                                             |
|           W    W    AA    RRRRR   N    N  II  N    N   GGGG   !!!           |
|           W    W   A  A   R    R  NN   N  II  NN   N  G    G  !!!           |
|           W    W  A    A  R    R  N N  N  II  N N  N  G       !!!           |
|           W WW W  AAAAAA  RRRRR   N  N N  II  N  N N  G  GGG   !            |
|           WW  WW  A    A  R   R   N   NN  II  N   NN  G    G                |
|           W    W  A    A  R    R  N    N  II  N    N   GGGG   !!!           |
|                                                                             |
|      For optimal performance we recommend to set                            |
|        NCORE= 4 - approx SQRT( number of cores)                             |
|      NCORE specifies how many cores store one orbital (NPAR=cpu/NCORE).     |
|      This setting can  greatly improve the performance of VASP for DFT.     |
|      The default,   NCORE=1            might be grossly inefficient         |
|      on modern multi-core architectures or massively parallel machines.     |
|      Do your own testing !!!!                                               |
|      Unfortunately you need to use the default for GW and RPA calculations. |
|      (for HF NCORE is supported but not extensively tested yet)             |
|                                                                             |
 ----------------------------------------------------------------------------- 


 ----------------------------------------------------------------------------- 
|                                                                             |
|  ADVICE TO THIS USER RUNNING 'VASP/VAMP'   (HEAR YOUR MASTER'S VOICE ...):  |
|                                                                             |
|      You have switched on vdW-DFT.                                          |
|      This routine was written and supplied by Jiri Klimes.                  |
|      We recommed that you carefully read and cite the following             |
|      publication                                                            |
|      J. Klimes, D.R. Bowler, A. Michelides                                  |
|        J. Phys.: Cond Matt. 22 022201 (2010)                                |
|      J. Klimes, D.R. Bowler, A. Michelides                                  |
|        Phys. Rev. B. 83, 195131 (2011)                                      |
|      and references therein.                                                |
|                                                                             |
 ----------------------------------------------------------------------------- 


 ----------------------------------------------------------------------------- 
|                                                                             |
|  ADVICE TO THIS USER RUNNING 'VASP/VAMP'   (HEAR YOUR MASTER'S VOICE ...):  |
|                                                                             |
|      You enforced a specific xc-type in the INCAR file,                     |
|      a different type was found on the POTCAR file                          |
|          I HOPE YOU KNOW, WHAT YOU ARE  DOING                               |
|                                                                             |
 ----------------------------------------------------------------------------- 

 LDA part: xc-table for Pade appr. of Perdew
 POSCAR found type information on POSCAR  Mg O  H 
 POSCAR found :  3 types and      63 ions
 POSCAR, INCAR and KPOINTS ok, starting setup
 FFT: planning ...
 WAVECAR not read
 augmentation electrons   138.055900588437     
 soft         electrons  0.000000000000000E+000
 augmentation electrons   138.055900588437     
 soft         electrons  0.000000000000000E+000
 augmentation electrons   138.055900588437     
 soft         electrons  0.000000000000000E+000
 augmentation electrons   138.055900588437     
 soft         electrons  0.000000000000000E+000
 augmentation electrons   138.055900588437     
 soft         electrons  0.000000000000000E+000
 augmentation electrons   138.055900588437     
 augmentation electrons   138.055900588437     
 soft         electrons  0.000000000000000E+000
 augmentation electrons   138.055900588437     
 soft         electrons  0.000000000000000E+000
 augmentation electrons   138.055900588437     
 soft         electrons  0.000000000000000E+000
 augmentation electrons   138.055900588437     
 soft         electrons  0.000000000000000E+000
 augmentation electrons   138.055900588437     
 soft         electrons  0.000000000000000E+000
 augmentation electrons   138.055900588437     
 soft         electrons  0.000000000000000E+000
 augmentation electrons   138.055900588437     
 soft         electrons  0.000000000000000E+000
 augmentation electrons   138.055900588437     
 soft         electrons  0.000000000000000E+000
 augmentation electrons   138.055900588437     
 soft         electrons  0.000000000000000E+000
 augmentation electrons   138.055900588437     
 soft         electrons  0.000000000000000E+000
 augmentation electrons   138.055900588437     
 soft         electrons  0.000000000000000E+000
 augmentation electrons   138.055900588437     
 soft         electrons  0.000000000000000E+000
 augmentation electrons   138.055900588437     
 soft         electrons  0.000000000000000E+000
 augmentation electrons   138.055900588437     
 soft         electrons  0.000000000000000E+000
 augmentation electrons   138.055900588437     
 soft         electrons  0.000000000000000E+000
 augmentation electrons   138.055900588437     
 soft         electrons  0.000000000000000E+000
 augmentation electrons   138.055900588437     
 soft         electrons  0.000000000000000E+000
 augmentation electrons   138.055900588437     
 soft         electrons  0.000000000000000E+000
 augmentation electrons   138.055900588437     
 soft         electrons  0.000000000000000E+000
 augmentation electrons   138.055900588437     
 soft         electrons  0.000000000000000E+000
 augmentation electrons   138.055900588437     
 soft         electrons  0.000000000000000E+000
 augmentation electrons   138.055900588437     
 soft         electrons  0.000000000000000E+000
 augmentation electrons   138.055900588437     
 soft         electrons  0.000000000000000E+000
 augmentation electrons   138.055900588437     
 soft         electrons  0.000000000000000E+000
 augmentation electrons   138.055900588437     
 soft         electrons  0.000000000000000E+000
 augmentation electrons   138.055900588437     
 soft         electrons  0.000000000000000E+000
 augmentation electrons   138.055900588437     
 soft         electrons  0.000000000000000E+000
 augmentation electrons   138.055900588437     
 soft         electrons  0.000000000000000E+000
 augmentation electrons   138.055900588437     
 soft         electrons  0.000000000000000E+000
 augmentation electrons   138.055900588437     
 soft         electrons  0.000000000000000E+000
 augmentation electrons   138.055900588437     
 soft         electrons  0.000000000000000E+000
 augmentation electrons   138.055900588437     
 soft         electrons  0.000000000000000E+000
 augmentation electrons   138.055900588437     
 soft         electrons  0.000000000000000E+000
 augmentation electrons   138.055900588437     
 soft         electrons  0.000000000000000E+000
 augmentation electrons   138.055900588437     
 soft         electrons  0.000000000000000E+000
 augmentation electrons   138.055900588437     
 soft         electrons  0.000000000000000E+000
 augmentation electrons   138.055900588437     
 soft         electrons  0.000000000000000E+000
 augmentation electrons   138.055900588437     
 soft         electrons  0.000000000000000E+000
 augmentation electrons   138.055900588437     
 soft         electrons  0.000000000000000E+000
 augmentation electrons   138.055900588437     
 soft         electrons  0.000000000000000E+000
 augmentation electrons   138.055900588437     
 soft         electrons  0.000000000000000E+000
 augmentation electrons   138.055900588437     
 soft         electrons  0.000000000000000E+000
 augmentation electrons   138.055900588437     
 soft         electrons  0.000000000000000E+000
 augmentation electrons   138.055900588437     
 soft         electrons  0.000000000000000E+000
 soft         electrons  0.000000000000000E+000
 augmentation electrons   138.055900588437     
 soft         electrons  0.000000000000000E+000
 augmentation electrons   138.055900588437     
 soft         electrons  0.000000000000000E+000
 total        electrons   138.055900588437     
 augmentation electrons   138.055900588437     
 soft         electrons  0.000000000000000E+000
 augmentation electrons   138.055900588437     
 soft         electrons  0.000000000000000E+000
 total        electrons   138.055900588437     
 augmentation electrons   138.055900588437     
 soft         electrons  0.000000000000000E+000
 augmentation electrons   138.055900588437     
 soft         electrons  0.000000000000000E+000
 total        electrons   138.055900588437     
 augmentation electrons   138.055900588437     
 soft         electrons  0.000000000000000E+000
 augmentation electrons   138.055900588437     
 soft         electrons  0.000000000000000E+000
 total        electrons   138.055900588437     
 augmentation electrons   138.055900588437     
 soft         electrons  0.000000000000000E+000
 augmentation electrons   138.055900588437     
 soft         electrons  0.000000000000000E+000
 total        electrons   138.055900588437     
 augmentation electrons   138.055900588437     
 soft         electrons  0.000000000000000E+000
 augmentation electrons   138.055900588437     
 soft         electrons  0.000000000000000E+000
 total        electrons   138.055900588437     
 augmentation electrons   138.055900588437     
 soft         electrons  0.000000000000000E+000
 augmentation electrons   138.055900588437     
 soft         electrons  0.000000000000000E+000
 total        electrons   138.055900588437     
 augmentation electrons   138.055900588437     
 soft         electrons  0.000000000000000E+000
 augmentation electrons   138.055900588437     
 soft         electrons  0.000000000000000E+000
 total        electrons   138.055900588437     
 augmentation electrons   138.055900588437     
 soft         electrons  0.000000000000000E+000
 augmentation electrons   138.055900588437     
 soft         electrons  0.000000000000000E+000
 total        electrons   138.055900588437     
 augmentation electrons   138.055900588437     
 soft         electrons  0.000000000000000E+000
 augmentation electrons   138.055900588437     
 total        electrons   138.055900588437     
 augmentation electrons   138.055900588437     
 soft         electrons  0.000000000000000E+000
 soft         electrons  0.000000000000000E+000
 total        electrons   138.055900588437     
 augmentation electrons   138.055900588437     
 total        electrons   138.055900588437     
 total        electrons   138.055900588437     
 soft         electrons  0.000000000000000E+000
 total        electrons   138.055900588437     
 total        electrons   138.055900588437     
 total        electrons   138.055900588437     
 total        electrons   138.055900588437     
 total        electrons   138.055900588437     
 total        electrons   138.055900588437     
 total        electrons   138.055900588437     
 total        electrons   138.055900588437     
 total        electrons   138.055900588437     
 total        electrons   138.055900588437     
 total        electrons   138.055900588437     
 total        electrons   138.055900588437     
 total        electrons   138.055900588437     
 total        electrons   138.055900588437     
 total        electrons   138.055900588437     
 total        electrons   138.055900588437     
 total        electrons   138.055900588437     
 total        electrons   138.055900588437     
 total        electrons   138.055900588437     
 total        electrons   138.055900588437     
 total        electrons   138.055900588437     
 total        electrons   138.055900588437     
 total        electrons   138.055900588437     
 total        electrons   138.055900588437     
 total        electrons   138.055900588437     
 total        electrons   138.055900588437     
 total        electrons   138.055900588437     
 total        electrons   138.055900588437     
 total        electrons   138.055900588437     
 total        electrons   138.055900588437     
 total        electrons   138.055900588437     
 total        electrons   138.055900588437     
 total        electrons   138.055900588437     
 total        electrons   138.055900588437     
 total        electrons   138.055900588437     
 total        electrons   138.055900588437     
 total        electrons   138.055900588437     
 total        electrons   138.055900588437     
 total        electrons   138.055900588437     
 total        electrons   138.055900588437     
 total        electrons   138.055900588437     
 total        electrons   138.055900588437     
 total        electrons   138.055900588437     
 total        electrons   138.055900588437     
 total        electrons   138.055900588437     
 total        electrons   138.055900588437     
 total        electrons   138.055900588437     
 total        electrons   138.055900588437     
 total        electrons   138.055900588437     
 total        electrons   138.055900588437     
 total        electrons   138.055900588437     
 total        electrons   138.055900588437     
 total        electrons   138.055900588437     
 total        electrons   138.055900588437     
 total        electrons   138.055900588437     
 total        electrons   138.055900588437     
 total        electrons   138.055900588437     
 total        electrons   138.055900588437     
 total        electrons   138.055900588437     
 augmentation electrons   479.681016308088     
 soft         electrons  0.000000000000000E+000
 augmentation electrons   479.681016308088     
 soft         electrons  0.000000000000000E+000
 augmentation electrons   479.681016308088     
 soft         electrons  0.000000000000000E+000
 augmentation electrons   479.681016308088     
 soft         electrons  0.000000000000000E+000
 augmentation electrons   479.681016308088     
 soft         electrons  0.000000000000000E+000
 augmentation electrons   479.681016308088     
 soft         electrons  0.000000000000000E+000
 augmentation electrons   479.681016308088     
 soft         electrons  0.000000000000000E+000
 augmentation electrons   479.681016308088     
 soft         electrons  0.000000000000000E+000
 augmentation electrons   479.681016308088     
 soft         electrons  0.000000000000000E+000
 augmentation electrons   479.681016308088     
 soft         electrons  0.000000000000000E+000
 augmentation electrons   479.681016308088     
 soft         electrons  0.000000000000000E+000
 augmentation electrons   479.681016308088     
 soft         electrons  0.000000000000000E+000
 augmentation electrons   479.681016308088     
 soft         electrons  0.000000000000000E+000
 augmentation electrons   479.681016308088     
 soft         electrons  0.000000000000000E+000
 augmentation electrons   479.681016308088     
 soft         electrons  0.000000000000000E+000
 augmentation electrons   479.681016308088     
 soft         electrons  0.000000000000000E+000
 augmentation electrons   479.681016308088     
 soft         electrons  0.000000000000000E+000
 augmentation electrons   479.681016308088     
 soft         electrons  0.000000000000000E+000
 augmentation electrons   479.681016308088     
 soft         electrons  0.000000000000000E+000
 augmentation electrons   479.681016308088     
 augmentation electrons   479.681016308088     
 augmentation electrons   479.681016308088     
 soft         electrons  0.000000000000000E+000
 augmentation electrons   479.681016308088     
 soft         electrons  0.000000000000000E+000
 augmentation electrons   479.681016308088     
 soft         electrons  0.000000000000000E+000
 augmentation electrons   479.681016308088     
 soft         electrons  0.000000000000000E+000
 augmentation electrons   479.681016308088     
 soft         electrons  0.000000000000000E+000
 augmentation electrons   479.681016308088     
 soft         electrons  0.000000000000000E+000
 augmentation electrons   479.681016308088     
 soft         electrons  0.000000000000000E+000
 augmentation electrons   479.681016308088     
 soft         electrons  0.000000000000000E+000
 augmentation electrons   479.681016308088     
 soft         electrons  0.000000000000000E+000
 augmentation electrons   479.681016308088     
 augmentation electrons   479.681016308088     
 soft         electrons  0.000000000000000E+000
 augmentation electrons   479.681016308088     
 soft         electrons  0.000000000000000E+000
 augmentation electrons   479.681016308088     
 soft         electrons  0.000000000000000E+000
 augmentation electrons   479.681016308088     
 soft         electrons  0.000000000000000E+000
 augmentation electrons   479.681016308088     
 soft         electrons  0.000000000000000E+000
 augmentation electrons   479.681016308088     
 soft         electrons  0.000000000000000E+000
 augmentation electrons   479.681016308088     
 soft         electrons  0.000000000000000E+000
 augmentation electrons   479.681016308088     
 soft         electrons  0.000000000000000E+000
 augmentation electrons   479.681016308088     
 soft         electrons  0.000000000000000E+000
 augmentation electrons   479.681016308088     
 soft         electrons  0.000000000000000E+000
 augmentation electrons   479.681016308088     
 soft         electrons  0.000000000000000E+000
 augmentation electrons   479.681016308088     
 soft         electrons  0.000000000000000E+000
 augmentation electrons   479.681016308088     
 soft         electrons  0.000000000000000E+000
 augmentation electrons   479.681016308088     
 soft         electrons  0.000000000000000E+000
 augmentation electrons   479.681016308088     
 soft         electrons  0.000000000000000E+000
 augmentation electrons   479.681016308088     
 soft         electrons  0.000000000000000E+000
 augmentation electrons   479.681016308088     
 soft         electrons  0.000000000000000E+000
 augmentation electrons   479.681016308088     
 soft         electrons  0.000000000000000E+000
 augmentation electrons   479.681016308088     
 soft         electrons  0.000000000000000E+000
 soft         electrons  0.000000000000000E+000
 augmentation electrons   479.681016308088     
 soft         electrons  0.000000000000000E+000
 augmentation electrons   479.681016308088     
 soft         electrons  0.000000000000000E+000
 total        electrons   479.681016308088     
 augmentation electrons   479.681016308088     
 soft         electrons  0.000000000000000E+000
 augmentation electrons   479.681016308088     
 soft         electrons  0.000000000000000E+000
 total        electrons   479.681016308088     
 augmentation electrons   479.681016308088     
 soft         electrons  0.000000000000000E+000
 augmentation electrons   479.681016308088     
 soft         electrons  0.000000000000000E+000
 total        electrons   479.681016308088     
 augmentation electrons   479.681016308088     
 soft         electrons  0.000000000000000E+000
 augmentation electrons   479.681016308088     
 soft         electrons  0.000000000000000E+000
 total        electrons   479.681016308088     
 augmentation electrons   479.681016308088     
 soft         electrons  0.000000000000000E+000
 augmentation electrons   479.681016308088     
 soft         electrons  0.000000000000000E+000
 total        electrons   479.681016308088     
 augmentation electrons   479.681016308088     
 soft         electrons  0.000000000000000E+000
 augmentation electrons   479.681016308088     
 soft         electrons  0.000000000000000E+000
 total        electrons   479.681016308088     
 augmentation electrons   479.681016308088     
 soft         electrons  0.000000000000000E+000
 augmentation electrons   479.681016308088     
 soft         electrons  0.000000000000000E+000
 total        electrons   479.681016308088     
 augmentation electrons   479.681016308088     
 soft         electrons  0.000000000000000E+000
 augmentation electrons   479.681016308088     
 soft         electrons  0.000000000000000E+000
 total        electrons   479.681016308088     
 augmentation electrons   479.681016308088     
 soft         electrons  0.000000000000000E+000
 augmentation electrons   479.681016308088     
 soft         electrons  0.000000000000000E+000
 total        electrons   479.681016308088     
 augmentation electrons   479.681016308088     
 soft         electrons  0.000000000000000E+000
 augmentation electrons   479.681016308088     
 soft         electrons  0.000000000000000E+000
 total        electrons   479.681016308088     
 augmentation electrons   479.681016308088     
 soft         electrons  0.000000000000000E+000
 soft         electrons  0.000000000000000E+000
 total        electrons   479.681016308088     
 augmentation electrons   479.681016308088     
 soft         electrons  0.000000000000000E+000
 total        electrons   479.681016308088     
 total        electrons   479.681016308088     
 soft         electrons  0.000000000000000E+000
 total        electrons   479.681016308088     
 total        electrons   479.681016308088     
 total        electrons   479.681016308088     
 total        electrons   479.681016308088     
 total        electrons   479.681016308088     
 total        electrons   479.681016308088     
 total        electrons   479.681016308088     
 total        electrons   479.681016308088     
 total        electrons   479.681016308088     
 total        electrons   479.681016308088     
 total        electrons   479.681016308088     
 total        electrons   479.681016308088     
 total        electrons   479.681016308088     
 total        electrons   479.681016308088     
 total        electrons   479.681016308088     
 total        electrons   479.681016308088     
 total        electrons   479.681016308088     
 total        electrons   479.681016308088     
 total        electrons   479.681016308088     
 total        electrons   479.681016308088     
 total        electrons   479.681016308088     
 total        electrons   479.681016308088     
 total        electrons   479.681016308088     
 total        electrons   479.681016308088     
 total        electrons   479.681016308088     
 total        electrons   479.681016308088     
 total        electrons   479.681016308088     
 total        electrons   479.681016308088     
 total        electrons   479.681016308088     
 total        electrons   479.681016308088     
 total        electrons   479.681016308088     
 total        electrons   479.681016308088     
 total        electrons   479.681016308088     
 total        electrons   479.681016308088     
 total        electrons   479.681016308088     
 total        electrons   479.681016308088     
 total        electrons   479.681016308088     
 total        electrons   479.681016308088     
 total        electrons   479.681016308088     
 total        electrons   479.681016308088     
 total        electrons   479.681016308088     
 total        electrons   479.681016308088     
 total        electrons   479.681016308088     
 total        electrons   479.681016308088     
 total        electrons   479.681016308088     
 total        electrons   479.681016308088     
 total        electrons   479.681016308088     
 total        electrons   479.681016308088     
 total        electrons   479.681016308088     
 total        electrons   479.681016308088     
 total        electrons   479.681016308088     
 total        electrons   479.681016308088     
 total        electrons   479.681016308088     
 total        electrons   479.681016308088     
 total        electrons   479.681016308088     
 total        electrons   479.681016308088     
 total        electrons   479.681016308088     
 total        electrons   479.681016308088     
 total        electrons   479.681016308088     
 entering main loop
       N       E                     dE             d eps       ncg     rms          rms(c)
Total vdW correction in eV:     53.6670845
RMM:   1     0.124741418621E+04    0.12474E+04   -0.27946E+04   510   0.785E+02
RMM:   2     0.546863605418E+03   -0.70055E+03   -0.76029E+03   510   0.166E+02
RMM:   3     0.310245591285E+03   -0.23662E+03   -0.30299E+03   510   0.839E+01
RMM:   4     0.135491079079E+03   -0.17475E+03   -0.15006E+03   510   0.806E+01
RMM:   5     0.168162073625E+02   -0.11867E+03   -0.94674E+02   510   0.650E+01
RMM:   6    -0.460807207855E+02   -0.62897E+02   -0.47948E+02   510   0.459E+01
RMM:   7    -0.722736671077E+02   -0.26193E+02   -0.19690E+02   510   0.259E+01
RMM:   8    -0.787039808208E+02   -0.64303E+01   -0.55136E+01   510   0.137E+01
RMM:   9    -0.807366596215E+02   -0.20327E+01   -0.19672E+01  1469   0.751E+00
RMM:  10    -0.810292552498E+02   -0.29260E+00   -0.30128E+00  1743   0.281E+00
RMM:  11    -0.810279808369E+02    0.12744E-02   -0.16386E-01  1708   0.691E-01
RMM:  12    -0.810305348008E+02   -0.25540E-02   -0.32243E-02  1790   0.280E-01    0.200E+01
Total vdW correction in eV:     53.7168846
RMM:  13    -0.703641986540E+02    0.10666E+02   -0.59885E+01  1441   0.138E+01    0.774E+00
Total vdW correction in eV:     53.6703637
RMM:  14    -0.774278868942E+02   -0.70637E+01   -0.40327E+00  1616   0.303E+00    0.694E+00
Total vdW correction in eV:     53.6561179
RMM:  15    -0.703950190933E+02    0.70329E+01   -0.14955E+00  1426   0.110E+00    0.512E+00
Total vdW correction in eV:     53.5879627
RMM:  16    -0.695661733489E+02    0.82885E+00   -0.10164E+00  1492   0.204E+00    0.194E+00
Total vdW correction in eV:     53.5821868
RMM:  17    -0.694274717211E+02    0.13870E+00   -0.27100E-01  1361   0.100E+00    0.739E-01
Total vdW correction in eV:     53.5881713
RMM:  18    -0.694041176558E+02    0.23354E-01   -0.75839E-02  1613   0.520E-01    0.375E-01
Total vdW correction in eV:     53.5947018
RMM:  19    -0.694034668475E+02    0.65081E-03   -0.34595E-02  1436   0.345E-01    0.244E-01
Total vdW correction in eV:     53.5981217
RMM:  20    -0.694036710512E+02   -0.20420E-03   -0.12833E-02  1542   0.210E-01    0.818E-02
Total vdW correction in eV:     53.6062128
RMM:  21    -0.694021266627E+02    0.15444E-02   -0.18197E-03  1472   0.785E-02    0.399E-02
Total vdW correction in eV:     53.6124115
RMM:  22    -0.693979720382E+02    0.41546E-02   -0.70932E-04  1434   0.414E-02    0.412E-02
Total vdW correction in eV:     53.6175661
RMM:  23    -0.693939514136E+02    0.40206E-02   -0.29438E-04  1310   0.282E-02    0.230E-02
Total vdW correction in eV:     53.6234497
RMM:  24    -0.693929897130E+02    0.96170E-03   -0.27830E-04  1189   0.343E-02    0.185E-02
Total vdW correction in eV:     53.6252828
RMM:  25    -0.693934944955E+02   -0.50478E-03   -0.12718E-04  1121   0.244E-02    0.103E-02
Total vdW correction in eV:     53.6266621
RMM:  26    -0.693934991102E+02   -0.46146E-05   -0.15823E-04   988   0.190E-02    0.659E-03
Total vdW correction in eV:     53.6270305
RMM:  27    -0.693933569656E+02    0.14214E-03   -0.13580E-04   990   0.152E-02    0.237E-03
Total vdW correction in eV:     53.6271662
RMM:  28    -0.693933579802E+02   -0.10146E-05   -0.97704E-05   889   0.101E-02    0.939E-04
Total vdW correction in eV:     53.6271468
RMM:  29    -0.693934006113E+02   -0.42631E-04   -0.49972E-05   865   0.746E-03    0.745E-04
Total vdW correction in eV:     53.6271165
RMM:  30    -0.693934181849E+02   -0.17574E-04   -0.21115E-05   867   0.793E-03    0.740E-04
Total vdW correction in eV:     53.6270686
RMM:  31    -0.693934021466E+02    0.16038E-04   -0.11189E-05   808   0.458E-03    0.447E-04
Total vdW correction in eV:     53.6270377
RMM:  32    -0.693934543877E+02   -0.52241E-04   -0.57420E-06   791   0.462E-03    0.682E-04
Total vdW correction in eV:     53.6270249
RMM:  33    -0.693934537884E+02    0.59929E-06   -0.34068E-06   831   0.347E-03
Total vdW correction in eV:     53.6269781
Total vdW correction in eV:     53.6270026
   1 F= -.69393454E+02 E0= -.69393454E+02  d E =0.000000E+00
 augmentation electrons   4.45061931415276     
 soft         electrons   133.583999017247     
 augmentation electrons   4.45061931415276     
 soft         electrons   133.583999017247     
 augmentation electrons   4.45061931415276     
 soft         electrons   133.583999017247     
 augmentation electrons   4.45061931415276     
 soft         electrons   133.583999017247     
 augmentation electrons   4.45061931415276     
 augmentation electrons   4.45061931415276     
 soft         electrons   133.583999017247     
 augmentation electrons   4.45061931415276     
 soft         electrons   133.583999017247     
 augmentation electrons   4.45061931415276     
 soft         electrons   133.583999017247     
 augmentation electrons   4.45061931415276     
 soft         electrons   133.583999017247     
 augmentation electrons   4.45061931415276     
 soft         electrons   133.583999017247     
 augmentation electrons   4.45061931415276     
 soft         electrons   133.583999017247     
 augmentation electrons   4.45061931415276     
 soft         electrons   133.583999017247     
 augmentation electrons   4.45061931415276     
 soft         electrons   133.583999017247     
 augmentation electrons   4.45061931415276     
 soft         electrons   133.583999017247     
 augmentation electrons   4.45061931415276     
 soft         electrons   133.583999017247     
 augmentation electrons   4.45061931415276     
 soft         electrons   133.583999017247     
 augmentation electrons   4.45061931415276     
 soft         electrons   133.583999017247     
 augmentation electrons   4.45061931415276     
 soft         electrons   133.583999017247     
 augmentation electrons   4.45061931415276     
 soft         electrons   133.583999017247     
 augmentation electrons   4.45061931415276     
 soft         electrons   133.583999017247     
 augmentation electrons   4.45061931415276     
 augmentation electrons   4.45061931415276     
 soft         electrons   133.583999017247     
 augmentation electrons   4.45061931415276     
 soft         electrons   133.583999017247     
 augmentation electrons   4.45061931415276     
 soft         electrons   133.583999017247     
 augmentation electrons   4.45061931415276     
 soft         electrons   133.583999017247     
 augmentation electrons   4.45061931415276     
 soft         electrons   133.583999017247     
 augmentation electrons   4.45061931415276     
 soft         electrons   133.583999017247     
 augmentation electrons   4.45061931415276     
 soft         electrons   133.583999017247     
 augmentation electrons   4.45061931415276     
 soft         electrons   133.583999017247     
 augmentation electrons   4.45061931415276     
 soft         electrons   133.583999017247     
 augmentation electrons   4.45061931415276     
 soft         electrons   133.583999017247     
 augmentation electrons   4.45061931415276     
 soft         electrons   133.583999017247     
 augmentation electrons   4.45061931415276     
 soft         electrons   133.583999017247     
 augmentation electrons   4.45061931415276     
 soft         electrons   133.583999017247     
 augmentation electrons   4.45061931415276     
 soft         electrons   133.583999017247     
 augmentation electrons   4.45061931415276     
 soft         electrons   133.583999017247     
 augmentation electrons   4.45061931415276     
 soft         electrons   133.583999017247     
 augmentation electrons   4.45061931415276     
 soft         electrons   133.583999017247     
 augmentation electrons   4.45061931415276     
 soft         electrons   133.583999017247     
 augmentation electrons   4.45061931415276     
 augmentation electrons   4.45061931415276     
 soft         electrons   133.583999017247     
 augmentation electrons   4.45061931415276     
 soft         electrons   133.583999017247     
 augmentation electrons   4.45061931415276     
 soft         electrons   133.583999017247     
 augmentation electrons   4.45061931415276     
 soft         electrons   133.583999017247     
 augmentation electrons   4.45061931415276     
 soft         electrons   133.583999017247     
 augmentation electrons   4.45061931415276     
 soft         electrons   133.583999017247     
 augmentation electrons   4.45061931415276     
 soft         electrons   133.583999017247     
 augmentation electrons   4.45061931415276     
 soft         electrons   133.583999017247     
 augmentation electrons   4.45061931415276     
 soft         electrons   133.583999017247     
 augmentation electrons   4.45061931415276     
 soft         electrons   133.583999017247     
 soft         electrons   133.583999017247     
 augmentation electrons   4.45061931415276     
 soft         electrons   133.583999017247     
 augmentation electrons   4.45061931415276     
 soft         electrons   133.583999017247     
 total        electrons   138.034618331400     
 augmentation electrons   4.45061931415276     
 soft         electrons   133.583999017247     
 augmentation electrons   4.45061931415276     
 soft         electrons   133.583999017247     
 total        electrons   138.034618331400     
 augmentation electrons   4.45061931415276     
 soft         electrons   133.583999017247     
 augmentation electrons   4.45061931415276     
 soft         electrons   133.583999017247     
 total        electrons   138.034618331400     
 augmentation electrons   4.45061931415276     
 soft         electrons   133.583999017247     
 augmentation electrons   4.45061931415276     
 soft         electrons   133.583999017247     
 total        electrons   138.034618331400     
 augmentation electrons   4.45061931415276     
 soft         electrons   133.583999017247     
 augmentation electrons   4.45061931415276     
 soft         electrons   133.583999017247     
 total        electrons   138.034618331400     
 augmentation electrons   4.45061931415276     
 soft         electrons   133.583999017247     
 augmentation electrons   4.45061931415276     
 soft         electrons   133.583999017247     
 total        electrons   138.034618331400     
 augmentation electrons   4.45061931415276     
 soft         electrons   133.583999017247     
 augmentation electrons   4.45061931415276     
 soft         electrons   133.583999017247     
 total        electrons   138.034618331400     
 augmentation electrons   4.45061931415276     
 soft         electrons   133.583999017247     
 augmentation electrons   4.45061931415276     
 soft         electrons   133.583999017247     
 total        electrons   138.034618331400     
 augmentation electrons   4.45061931415276     
 soft         electrons   133.583999017247     
 augmentation electrons   4.45061931415276     
 soft         electrons   133.583999017247     
 total        electrons   138.034618331400     
 augmentation electrons   4.45061931415276     
 soft         electrons   133.583999017247     
 augmentation electrons   4.45061931415276     
 soft         electrons   133.583999017247     
 total        electrons   138.034618331400     
 augmentation electrons   4.45061931415276     
 soft         electrons   133.583999017247     
 soft         electrons   133.583999017247     
 total        electrons   138.034618331400     
 augmentation electrons   4.45061931415276     
 soft         electrons   133.583999017247     
 total        electrons   138.034618331400     
 total        electrons   138.034618331400     
 soft         electrons   133.583999017247     
 total        electrons   138.034618331400     
 total        electrons   138.034618331400     
 total        electrons   138.034618331400     
 total        electrons   138.034618331400     
 total        electrons   138.034618331400     
 total        electrons   138.034618331400     
 total        electrons   138.034618331400     
 total        electrons   138.034618331400     
 total        electrons   138.034618331400     
 total        electrons   138.034618331400     
 total        electrons   138.034618331400     
 total        electrons   138.034618331400     
 total        electrons   138.034618331400     
 total        electrons   138.034618331400     
 total        electrons   138.034618331400     
 total        electrons   138.034618331400     
 total        electrons   138.034618331400     
 total        electrons   138.034618331400     
 total        electrons   138.034618331400     
 total        electrons   138.034618331400     
 total        electrons   138.034618331400     
 total        electrons   138.034618331400     
 total        electrons   138.034618331400     
 total        electrons   138.034618331400     
 total        electrons   138.034618331400     
 total        electrons   138.034618331400     
 total        electrons   138.034618331400     
 total        electrons   138.034618331400     
 total        electrons   138.034618331400     
 total        electrons   138.034618331400     
 total        electrons   138.034618331400     
 total        electrons   138.034618331400     
 total        electrons   138.034618331400     
 total        electrons   138.034618331400     
 total        electrons   138.034618331400     
 total        electrons   138.034618331400     
 total        electrons   138.034618331400     
 total        electrons   138.034618331400     
 total        electrons   138.034618331400     
 total        electrons   138.034618331400     
 total        electrons   138.034618331400     
 total        electrons   138.034618331400     
 total        electrons   138.034618331400     
 total        electrons   138.034618331400     
 total        electrons   138.034618331400     
 total        electrons   138.034618331400     
 total        electrons   138.034618331400     
 total        electrons   138.034618331400     
 total        electrons   138.034618331400     
 total        electrons   138.034618331400     
 total        electrons   138.034618331400     
 total        electrons   138.034618331400     
 total        electrons   138.034618331400     
 total        electrons   138.034618331400     
 total        electrons   138.034618331400     
 total        electrons   138.034618331400     
 total        electrons   138.034618331400     
 total        electrons   138.034618331400     
 total        electrons   138.034618331400     
