<?xml version="1.0" encoding="ISO-8859-1"?>
<modeling>
 <generator>
  <i name="program" type="string">vasp </i>
  <i name="version" type="string">5.4.4.18Apr17-6-g9f103f2a35  </i>
  <i name="subversion" type="string">(build Jun 08 2018 12:06:12) complex            parallel </i>
  <i name="platform" type="string">LinuxIFC </i>
  <i name="date" type="string">2019 06 06 </i>
  <i name="time" type="string">07:46:21 </i>
 </generator>
 <incar>
  <i type="string" name="SYSTEM"> Mg_slab_in_a_box</i>
  <i type="string" name="PREC">accurate</i>
  <i type="string" name="ALGO"> V</i>
  <i type="int" name="NELM">   300</i>
  <i type="int" name="NELMIN">     6</i>
  <i name="EDIFF">      0.00000500</i>
  <i name="ENCUT">    520.00000000</i>
  <i type="string" name="LREAL"> AUTO</i>
  <i type="logical" name="LPLANE"> T  </i>
  <i type="int" name="ISMEAR">    -5</i>
  <i type="logical" name="LWAVE"> F  </i>
  <i type="logical" name="LCHARG"> T  </i>
  <i type="logical" name="LVTOT"> T  </i>
  <i type="logical" name="LVHAR"> T  </i>
  <i type="logical" name="LSCALU"> F  </i>
  <i type="logical" name="LASPH"> T  </i>
  <i type="logical" name="LAECHG"> T  </i>
  <v type="int" name="KPOINT_BSE">    -1     0     0     0</v>
  <i type="int" name="NELM">   300</i>
  <i type="string" name="GGA"> BO</i>
  <i name="PARAM1">      0.18333333</i>
  <i name="PARAM2">      0.22000000</i>
  <i type="logical" name="LUSE_VDW"> T  </i>
  <i name="AGGAC">      0.00000000</i>
  <i type="logical" name="LDIPOL"> T  </i>
  <i type="int" name="IDIPOL">     3</i>
  <i type="logical" name="LASPH"> T  </i>
 </incar>
 <structure name="primitive_cell" >
  <crystal>
   <varray name="basis" >
    <v>       9.55575275       0.00000000       0.00000000 </v>
    <v>      -4.77787638       8.27552464       0.00000000 </v>
    <v>       0.00000000       0.00000000      32.62509537 </v>
   </varray>
   <i name="volume">   2579.95558872 </i>
   <varray name="rec_basis" >
    <v>       0.10464900       0.06041913       0.00000000 </v>
    <v>       0.00000000       0.12083826       0.00000000 </v>
    <v>       0.00000000       0.00000000       0.03065125 </v>
   </varray>
  </crystal>
  <varray name="positions" >
   <v>       0.00000000       0.00000000       0.00000000 </v>
   <v>       0.00000002      -0.33333328       0.00000000 </v>
   <v>      -0.33333330      -0.33333328       0.00000000 </v>
   <v>      -0.33333332       0.00000000       0.00000000 </v>
   <v>       0.33333334       0.00000000       0.00000000 </v>
   <v>       0.00000001       0.33333336       0.00000000 </v>
   <v>       0.33333335       0.33333336       0.00000000 </v>
   <v>      -0.22222216      -0.11111106       0.07982145 </v>
   <v>       0.11111116      -0.11111106       0.07982145 </v>
   <v>       0.11111113       0.22222222       0.07982145 </v>
   <v>      -0.22222219      -0.44444439       0.07982145 </v>
   <v>      -0.22222221       0.22222222       0.07982145 </v>
   <v>       0.44444450       0.22222222       0.07982145 </v>
   <v>      -0.00020310       0.00188955       0.15822423 </v>
   <v>       0.33333336      -0.33333328       0.00000000 </v>
   <v>      -0.33333332       0.33333336       0.00000000 </v>
   <v>       0.44444450      -0.44444439       0.07982145 </v>
   <v>       0.44444451      -0.11111106       0.07982145 </v>
   <v>       0.11111114      -0.44444439       0.07982145 </v>
   <v>      -0.33173968      -0.32985370       0.15698626 </v>
   <v>       0.00126483      -0.32979501       0.15742387 </v>
   <v>       0.33200743       0.33339908       0.15714463 </v>
   <v>       0.33329116       0.00170185       0.15756248 </v>
   <v>      -0.33463319       0.00131900       0.15795305 </v>
   <v>       0.00027174       0.33629812       0.15802695 </v>
   <v>       0.33263550      -0.32940065       0.15802066 </v>
   <v>      -0.33370535       0.33512388       0.15833221 </v>
   <v>       0.10653593      -0.10780561       0.23639687 </v>
   <v>       0.10936967       0.22414755       0.23637652 </v>
   <v>      -0.21941968      -0.10653149       0.23787987 </v>
   <v>      -0.22240427      -0.44087617       0.23500646 </v>
   <v>      -0.22431757       0.22828686       0.23650233 </v>
   <v>       0.44961918       0.23330187       0.23686694 </v>
   <v>       0.44535012      -0.44077520       0.23359385 </v>
   <v>       0.11433205      -0.43784162       0.23759210 </v>
   <v>       0.44364126      -0.11261490       0.23751727 </v>
   <v>       0.32879251       0.00725215       0.30995698 </v>
   <v>       0.32395567       0.33354283       0.31319935 </v>
   <v>      -0.00409814       0.33745410       0.31237572 </v>
   <v>      -0.33886365      -0.32203890       0.31362687 </v>
   <v>       0.00028412      -0.32657352       0.31464653 </v>
   <v>      -0.33101810       0.00862868       0.31434550 </v>
   <v>       0.00236649       0.01388613       0.32947997 </v>
   <v>      -0.22591907      -0.42726439       0.34533282 </v>
   <v>       0.44283313      -0.44653754       0.33636771 </v>
   <v>       0.32247293      -0.32607481       0.33039672 </v>
   <v>      -0.34536403       0.32396458       0.33274368 </v>
   <v>      -0.20715488      -0.39404606       0.37424029 </v>
   <v>       0.24115847      -0.07068071       0.38315920 </v>
   <v>      -0.13377045       0.20395231       0.38393512 </v>
   <v>      -0.00641766      -0.00826021       0.39597746 </v>
   <v>       0.08815519      -0.00115118       0.41008959 </v>
   <v>      -0.04000324       0.06045582       0.41058582 </v>
   <v>       0.27870769      -0.04512379       0.41233810 </v>
   <v>       0.38285282       0.05642508       0.40979256 </v>
   <v>      -0.12504845       0.21812735       0.41472788 </v>
   <v>       0.46272673      -0.26002176       0.40353514 </v>
   <v>       0.35142364      -0.29283288       0.39587116 </v>
   <v>       0.33056918      -0.20735545       0.40661685 </v>
   <v>      -0.02649851       0.32353822       0.41801013 </v>
   <v>      -0.38368940       0.26967494       0.40060347 </v>
   <v>      -0.29558390       0.25266242       0.41166712 </v>
   <v>      -0.38749309       0.35144720       0.41789888 </v>
  </varray>
 </structure>
 <varray name="primitive_index" >
  <v type="int" >        1 </v>
  <v type="int" >        7 </v>
  <v type="int" >       25 </v>
  <v type="int" >       19 </v>
  <v type="int" >       10 </v>
  <v type="int" >        4 </v>
  <v type="int" >       13 </v>
  <v type="int" >       44 </v>
  <v type="int" >       32 </v>
  <v type="int" >       28 </v>
  <v type="int" >       42 </v>
  <v type="int" >       40 </v>
  <v type="int" >       34 </v>
  <v type="int" >        2 </v>
  <v type="int" >       16 </v>
  <v type="int" >       22 </v>
  <v type="int" >       36 </v>
  <v type="int" >       38 </v>
  <v type="int" >       30 </v>
  <v type="int" >       26 </v>
  <v type="int" >        8 </v>
  <v type="int" >       14 </v>
  <v type="int" >       11 </v>
  <v type="int" >       20 </v>
  <v type="int" >        5 </v>
  <v type="int" >       17 </v>
  <v type="int" >       23 </v>
  <v type="int" >       33 </v>
  <v type="int" >       29 </v>
  <v type="int" >       45 </v>
  <v type="int" >       43 </v>
  <v type="int" >       41 </v>
  <v type="int" >       35 </v>
  <v type="int" >       37 </v>
  <v type="int" >       31 </v>
  <v type="int" >       39 </v>
  <v type="int" >       12 </v>
  <v type="int" >       15 </v>
  <v type="int" >        6 </v>
  <v type="int" >       27 </v>
  <v type="int" >        9 </v>
  <v type="int" >       21 </v>
  <v type="int" >        3 </v>
  <v type="int" >       50 </v>
  <v type="int" >       61 </v>
  <v type="int" >       18 </v>
  <v type="int" >       24 </v>
  <v type="int" >       60 </v>
  <v type="int" >       55 </v>
  <v type="int" >       57 </v>
  <v type="int" >       46 </v>
  <v type="int" >       53 </v>
  <v type="int" >       52 </v>
  <v type="int" >       47 </v>
  <v type="int" >       54 </v>
  <v type="int" >       48 </v>
  <v type="int" >       63 </v>
  <v type="int" >       51 </v>
  <v type="int" >       62 </v>
  <v type="int" >       56 </v>
  <v type="int" >       49 </v>
  <v type="int" >       59 </v>
  <v type="int" >       58 </v>
 </varray>
 <kpoints>
  <generation param="Gamma">
   <v type="int" name="divisions">       3        3        1 </v>
   <v name="usershift">      0.00000000       0.00000000       0.00000000 </v>
   <v name="genvec1">      0.33333333       0.00000000       0.00000000 </v>
   <v name="genvec2">      0.00000000       0.33333333       0.00000000 </v>
   <v name="genvec3">      0.00000000       0.00000000       1.00000000 </v>
   <v name="shift">      0.00000000       0.00000000       0.00000000 </v>
  </generation>
  <varray name="kpointlist" >
   <v>       0.00000000       0.00000000       0.00000000 </v>
   <v>       0.33333333      -0.00000000       0.00000000 </v>
   <v>       0.00000000       0.33333333       0.00000000 </v>
   <v>       0.33333333       0.33333333       0.00000000 </v>
   <v>      -0.33333333       0.33333333       0.00000000 </v>
  </varray>
  <varray name="weights" >
   <v>       0.11111111 </v>
   <v>       0.22222222 </v>
   <v>       0.22222222 </v>
   <v>       0.22222222 </v>
   <v>       0.22222222 </v>
  </varray>
  <varray name="tetrahedronlist"  type="int" >
   <v type="int" >        2        2        3        3        4 </v>
   <v type="int" >        2        1        2        3        3 </v>
   <v type="int" >        2        1        1        2        3 </v>
   <v type="int" >        2        2        3        4        4 </v>
   <v type="int" >        2        2        2        3        4 </v>
   <v type="int" >        2        1        2        2        3 </v>
   <v type="int" >        2        2        4        4        5 </v>
   <v type="int" >        2        2        2        4        4 </v>
   <v type="int" >        4        2        2        2        4 </v>
   <v type="int" >        2        2        4        5        5 </v>
   <v type="int" >        2        2        2        4        5 </v>
   <v type="int" >        2        1        3        5        5 </v>
   <v type="int" >        2        1        2        5        5 </v>
   <v type="int" >        2        1        2        2        5 </v>
   <v type="int" >        2        1        3        3        5 </v>
   <v type="int" >        2        1        1        3        5 </v>
   <v type="int" >        2        1        1        2        5 </v>
   <v type="int" >        2        3        3        4        5 </v>
   <v type="int" >        4        3        3        3        4 </v>
   <v type="int" >        2        3        4        5        5 </v>
   <v type="int" >        2        3        4        4        5 </v>
   <v type="int" >        2        3        3        4        4 </v>
   <v type="int" >        4        4        5        5        5 </v>
   <v type="int" >        2        4        4        5        5 </v>
  </varray>
  <i name="volumeweight">      0.01851852 </i>
 </kpoints>
 <parameters>
  <separator name="general" >
   <i type="string" name="SYSTEM">Mg_slab_in_a_box</i>
   <i type="logical" name="LCOMPAT"> F  </i>
  </separator>
  <separator name="electronic" >
   <i type="string" name="PREC">accura</i>
   <i name="ENMAX">    520.00000000</i>
   <i name="ENAUG">    605.39200000</i>
   <i name="EDIFF">      0.00000500</i>
   <i type="int" name="IALGO">    48</i>
   <i type="int" name="IWAVPR">    10</i>
   <i type="int" name="NBANDS">   102</i>
   <i name="NELECT">    138.00000000</i>
   <i type="int" name="TURBO">     0</i>
   <i type="int" name="IRESTART">     0</i>
   <i type="int" name="NREBOOT">     0</i>
   <i type="int" name="NMIN">     0</i>
   <i name="EREF">      0.00000000</i>
   <separator name="electronic smearing" >
    <i type="int" name="ISMEAR">    -5</i>
    <i name="SIGMA">      0.20000000</i>
    <i name="KSPACING">      0.50000000</i>
    <i type="logical" name="KGAMMA"> T  </i>
   </separator>
   <separator name="electronic projectors" >
    <i type="logical" name="LREAL"> T  </i>
    <v name="ROPT">     -0.00025000     -0.00025000     -0.00025000</v>
    <i type="int" name="LMAXPAW">  -100</i>
    <i type="int" name="LMAXMIX">     2</i>
    <i type="logical" name="NLSPLINE"> F  </i>
   </separator>
   <separator name="electronic startup" >
    <i type="int" name="ISTART">     0</i>
    <i type="int" name="ICHARG">     2</i>
    <i type="int" name="INIWAV">     1</i>
   </separator>
   <separator name="electronic spin" >
    <i type="int" name="ISPIN">     1</i>
    <i type="logical" name="LNONCOLLINEAR"> F  </i>
    <v name="MAGMOM">      1.00000000      1.00000000      1.00000000      1.00000000      1.00000000      1.00000000      1.00000000      1.00000000      1.00000000      1.00000000      1.00000000      1.00000000      1.00000000      1.00000000      1.00000000      1.00000000      1.00000000      1.00000000      1.00000000      1.00000000
      1.00000000      1.00000000      1.00000000      1.00000000      1.00000000      1.00000000      1.00000000      1.00000000      1.00000000      1.00000000      1.00000000      1.00000000      1.00000000      1.00000000      1.00000000      1.00000000      1.00000000      1.00000000      1.00000000      1.00000000
      1.00000000      1.00000000      1.00000000      1.00000000      1.00000000      1.00000000      1.00000000      1.00000000      1.00000000      1.00000000      1.00000000      1.00000000      1.00000000      1.00000000      1.00000000      1.00000000      1.00000000      1.00000000      1.00000000      1.00000000
      1.00000000      1.00000000      1.00000000</v>
    <i name="NUPDOWN">     -1.00000000</i>
    <i type="logical" name="LSORBIT"> F  </i>
    <v name="SAXIS">      0.00000000      0.00000000      1.00000000</v>
    <i type="logical" name="LSPIRAL"> F  </i>
    <v name="QSPIRAL">      0.00000000      0.00000000      0.00000000</v>
    <i type="logical" name="LZEROZ"> F  </i>
   </separator>
   <separator name="electronic exchange-correlation" >
    <i type="logical" name="LASPH"> T  </i>
    <i type="logical" name="LMETAGGA"> F  </i>
   </separator>
   <separator name="electronic convergence" >
    <i type="int" name="NELM">   300</i>
    <i type="int" name="NELMDL">   -12</i>
    <i type="int" name="NELMIN">     6</i>
    <i name="ENINI">    520.00000000</i>
    <separator name="electronic convergence detail" >
     <i type="logical" name="LDIAG"> T  </i>
     <i type="logical" name="LSUBROT"> F  </i>
     <i name="WEIMIN">      0.00000000</i>
     <i name="EBREAK">      0.00000001</i>
     <i name="DEPER">      0.30000000</i>
     <i type="int" name="NRMM">     4</i>
     <i name="TIME">      0.40000000</i>
    </separator>
   </separator>
   <separator name="electronic mixer" >
    <i name="AMIX">      0.40000000</i>
    <i name="BMIX">      1.00000000</i>
    <i name="AMIN">      0.10000000</i>
    <i name="AMIX_MAG">      1.60000000</i>
    <i name="BMIX_MAG">      1.00000000</i>
    <separator name="electronic mixer details" >
     <i type="int" name="IMIX">     4</i>
     <i type="logical" name="MIXFIRST"> F  </i>
     <i type="int" name="MAXMIX">   -45</i>
     <i name="WC">    100.00000000</i>
     <i type="int" name="INIMIX">     1</i>
     <i type="int" name="MIXPRE">     1</i>
     <i type="int" name="MREMOVE">     5</i>
    </separator>
   </separator>
   <separator name="electronic dipolcorrection" >
    <i type="logical" name="LDIPOL"> T  </i>
    <i type="logical" name="LMONO"> F  </i>
    <i type="int" name="IDIPOL">     3</i>
    <i name="EPSILON">      1.00000000</i>
    <v name="DIPOL">   -100.00000000   -100.00000000   -100.00000000</v>
    <i name="EFIELD">      0.00000000</i>
   </separator>
  </separator>
  <separator name="grids" >
   <i type="int" name="NGX">    72</i>
   <i type="int" name="NGY">    72</i>
   <i type="int" name="NGZ">   250</i>
   <i type="int" name="NGXF">   144</i>
   <i type="int" name="NGYF">   144</i>
   <i type="int" name="NGZF">   500</i>
   <i type="logical" name="ADDGRID"> F  </i>
  </separator>
  <separator name="ionic" >
   <i type="int" name="NSW">     0</i>
   <i type="int" name="IBRION">    -1</i>
   <i type="int" name="MDALGO">     0</i>
   <i type="int" name="ISIF">     2</i>
   <i name="PSTRESS">      0.00000000</i>
   <i name="EDIFFG">      0.00005000</i>
   <i type="int" name="NFREE">     0</i>
   <i name="POTIM">      0.50000000</i>
   <i name="SMASS">     -3.00000000</i>
   <i name="SCALEE">      1.00000000</i>
  </separator>
  <separator name="ionic md" >
   <i name="TEBEG">      0.00010000</i>
   <i name="TEEND">      0.00010000</i>
   <i type="int" name="NBLOCK">     1</i>
   <i type="int" name="KBLOCK">     1</i>
   <i type="int" name="NPACO">   256</i>
   <i name="APACO">     16.00000000</i>
  </separator>
  <separator name="symmetry" >
   <i type="int" name="ISYM">     2</i>
   <i name="SYMPREC">      0.00001000</i>
  </separator>
  <separator name="dos" >
   <i type="int" name="LORBIT">     0</i>
   <v name="RWIGS">     -1.00000000     -1.00000000     -1.00000000</v>
   <i type="int" name="NEDOS">   301</i>
   <i name="EMIN">     10.00000000</i>
   <i name="EMAX">    -10.00000000</i>
   <i name="EFERMI">      0.00000000</i>
  </separator>
  <separator name="writing" >
   <i type="int" name="NWRITE">     2</i>
   <i type="logical" name="LWAVE"> F  </i>
   <i type="logical" name="LDOWNSAMPLE"> F  </i>
   <i type="logical" name="LCHARG"> T  </i>
   <i type="logical" name="LPARD"> F  </i>
   <i type="logical" name="LVTOT"> F  </i>
   <i type="logical" name="LVHAR"> T  </i>
   <i type="logical" name="LELF"> F  </i>
   <i type="logical" name="LOPTICS"> F  </i>
   <v name="STM">      0.00000000      0.00000000      0.00000000      0.00000000      0.00000000      0.00000000      0.00000000</v>
  </separator>
  <separator name="performance" >
   <i type="int" name="NPAR">     3</i>
   <i type="int" name="NSIM">     4</i>
   <i type="int" name="NBLK">    -1</i>
   <i type="logical" name="LPLANE"> T  </i>
   <i type="logical" name="LSCALAPACK"> T  </i>
   <i type="logical" name="LSCAAWARE"> F  </i>
   <i type="logical" name="LSCALU"> F  </i>
   <i type="logical" name="LASYNC"> F  </i>
   <i type="logical" name="LORBITALREAL"> F  </i>
  </separator>
  <separator name="miscellaneous" >
   <i type="int" name="IDIOT">     3</i>
   <i type="int" name="ISPECIAL">     0</i>
   <i type="logical" name="LMUSIC"> F  </i>
   <v name="POMASS">     24.30500000     16.00000000      1.00000000</v>
   <v name="DARWINR">      0.00000000      0.00000000      0.00000000</v>
   <v name="DARWINV">      1.00000000      1.00000000      1.00000000</v>
   <i type="logical" name="LCORR"> T  </i>
  </separator>
  <i type="logical" name="GGA_COMPAT"> T  </i>
  <i type="logical" name="LBERRY"> F  </i>
  <i type="int" name="ICORELEVEL">     0</i>
  <i type="logical" name="LDAU"> F  </i>
  <i type="int" name="I_CONSTRAINED_M">     0</i>
  <separator name="electronic exchange-correlation" >
   <i type="string" name="GGA">BO</i>
   <i type="int" name="VOSKOWN">     0</i>
   <i type="logical" name="LHFCALC"> F  </i>
   <i type="string" name="PRECFOCK"></i>
   <i type="logical" name="LSYMGRAD"> F  </i>
   <i type="logical" name="LHFONE"> F  </i>
   <i type="logical" name="LRHFCALC"> F  </i>
   <i type="logical" name="LTHOMAS"> F  </i>
   <i type="logical" name="LMODELHF"> F  </i>
   <i name="ENCUT4O">     -1.00000000</i>
   <i type="int" name="EXXOEP">     0</i>
   <i type="int" name="FOURORBIT">     0</i>
   <i name="AEXX">      0.00000000</i>
   <i name="HFALPHA">      0.00000000</i>
   <i name="MCALPHA">      0.00000000</i>
   <i name="ALDAX">      1.00000000</i>
   <i name="AGGAX">      1.00000000</i>
   <i name="ALDAC">      1.00000000</i>
   <i name="AGGAC">      0.00000000</i>
   <i type="int" name="NKREDX">     1</i>
   <i type="int" name="NKREDY">     1</i>
   <i type="int" name="NKREDZ">     1</i>
   <i type="logical" name="SHIFTRED"> F  </i>
   <i type="logical" name="ODDONLY"> F  </i>
   <i type="logical" name="EVENONLY"> F  </i>
   <i type="int" name="LMAXFOCK">     0</i>
   <i type="int" name="NMAXFOCKAE">     0</i>
   <i type="logical" name="LFOCKAEDFT"> F  </i>
   <i name="HFSCREEN">      0.00000000</i>
   <i name="HFSCREENC">      0.00000000</i>
   <i type="int" name="NBANDSGWLOW">     0</i>
  </separator>
  <separator name="vdW DFT" >
   <i type="logical" name="LUSE_VDW"> T  </i>
   <i name="Zab_VDW">     -0.84910000</i>
   <i name="PARAM1">      0.18333333</i>
   <i name="PARAM2">      0.22000000</i>
   <i name="PARAM3">      0.00000000</i>
  </separator>
  <separator name="model GW" >
   <i type="int" name="MODEL_GW">     0</i>
   <i name="MODEL_EPS0">     24.57100561</i>
   <i name="MODEL_ALPHA">      1.00000000</i>
  </separator>
  <separator name="linear response parameters" >
   <i type="logical" name="LEPSILON"> F  </i>
   <i type="logical" name="LRPA"> F  </i>
   <i type="logical" name="LNABLA"> F  </i>
   <i type="logical" name="LVEL"> F  </i>
   <i type="int" name="KINTER">     0</i>
   <i name="CSHIFT">      0.10000000</i>
   <i name="OMEGAMAX">     -1.00000000</i>
   <i name="DEG_THRESHOLD">      0.00200000</i>
   <i name="RTIME">     -0.10000000</i>
   <i name="WPLASMAI">      0.00000000</i>
   <v name="DFIELD">      0.00000000      0.00000000      0.00000000</v>
   <v name="WPLASMA">      0.00000000      0.00000000      0.00000000      0.00000000      0.00000000      0.00000000      0.00000000      0.00000000      0.00000000</v>
  </separator>
  <separator name="orbital magnetization" >
   <i type="logical" name="NUCIND"> F  </i>
   <v name="MAGPOS">      0.00000000      0.00000000      0.00000000</v>
   <i type="logical" name="LNICSALL"> T  </i>
   <i type="logical" name="ORBITALMAG"> F  </i>
   <i type="logical" name="LMAGBLOCH"> F  </i>
   <i type="logical" name="LCHIMAG"> F  </i>
   <i type="logical" name="LGAUGE"> T  </i>
   <i type="int" name="MAGATOM">     0</i>
   <v name="MAGDIPOL">      0.00000000      0.00000000      0.00000000</v>
   <v name="AVECCONST">      0.00000000      0.00000000      0.00000000</v>
  </separator>
  <separator name="response functions" >
   <i type="logical" name="LADDER"> F  </i>
   <i type="logical" name="LRPAFORCE"> F  </i>
   <i type="logical" name="LFXC"> F  </i>
   <i type="logical" name="LHARTREE"> T  </i>
   <i type="int" name="IBSE">     0</i>
   <v type="int" name="KPOINT">    -1     0     0     0</v>
   <i type="logical" name="LTCTE"> F  </i>
   <i type="logical" name="LTETE"> F  </i>
   <i type="logical" name="LTRIPLET"> F  </i>
   <i type="logical" name="LFXCEPS"> F  </i>
   <i type="logical" name="LFXHEG"> F  </i>
   <i type="int" name="NATURALO">     2</i>
   <i type="logical" name="L2ORDER"> F  </i>
   <i type="logical" name="LMP2LT"> F  </i>
   <i type="logical" name="LUSEW"> F  </i>
   <i name="ENCUTGW">     -2.00000000</i>
   <i name="ENCUTGWSOFT">     -2.00000000</i>
   <i name="ENCUTLF">     -1.00000000</i>
   <i type="int" name="LMAXMP2">    -1</i>
   <i name="SCISSOR">      0.00000000</i>
   <i type="int" name="NOMEGA">     0</i>
   <i type="int" name="NOMEGAR">     0</i>
   <i type="int" name="NBANDSGW">    -1</i>
   <i type="int" name="NBANDSO">    -1</i>
   <i type="int" name="NBANDSV">    -1</i>
   <i type="int" name="NELM">   300</i>
   <i type="int" name="NELMHF">     1</i>
   <i type="int" name="DIM">     3</i>
   <i type="int" name="ANTIRES">     0</i>
   <i name="OMEGAMAX">    -30.00000000</i>
   <i name="OMEGAMIN">    -30.00000000</i>
   <i name="OMEGATL">   -200.00000000</i>
   <i type="int" name="OMEGAGRID">   140</i>
   <i name="CSHIFT">     -0.10000000</i>
   <i type="logical" name="SELFENERGY"> F  </i>
   <i type="logical" name="LSPECTRAL"> F  </i>
   <i type="logical" name="LSPECTRALGW"> F  </i>
   <i type="logical" name="LSINGLES"> F  </i>
   <i type="logical" name="LFERMIGW"> F  </i>
   <i type="logical" name="ODDONLYGW"> F  </i>
   <i type="logical" name="EVENONLYGW"> F  </i>
   <i type="int" name="NKREDLFX">     1</i>
   <i type="int" name="NKREDLFY">     1</i>
   <i type="int" name="NKREDLFZ">     1</i>
   <i type="int" name="MAXMEM">  2800</i>
   <i type="int" name="TELESCOPE">     0</i>
   <i type="int" name="TAUPAR">     1</i>
   <i type="int" name="OMEGAPAR">    -1</i>
   <i name="LAMBDA">      1.00000000</i>
  </separator>
  <separator name="External order field" >
   <i name="OFIELD_KAPPA">      0.00000000</i>
   <v name="OFIELD_K">      0.00000000      0.00000000      0.00000000</v>
   <i name="OFIELD_Q6_NEAR">      0.00000000</i>
   <i name="OFIELD_Q6_FAR">      0.00000000</i>
   <i name="OFIELD_A">      0.00000000</i>
  </separator>
 </parameters>
 <atominfo>
  <atoms>      63 </atoms>
  <types>       3 </types>
  <array name="atoms" >
   <dimension dim="1">ion</dimension>
   <field type="string">element</field>
   <field type="int">atomtype</field>
   <set>
    <rc><c>Mg</c><c>   1</c></rc>
    <rc><c>Mg</c><c>   1</c></rc>
    <rc><c>Mg</c><c>   1</c></rc>
    <rc><c>Mg</c><c>   1</c></rc>
    <rc><c>Mg</c><c>   1</c></rc>
    <rc><c>Mg</c><c>   1</c></rc>
    <rc><c>Mg</c><c>   1</c></rc>
    <rc><c>Mg</c><c>   1</c></rc>
    <rc><c>Mg</c><c>   1</c></rc>
    <rc><c>Mg</c><c>   1</c></rc>
    <rc><c>Mg</c><c>   1</c></rc>
    <rc><c>Mg</c><c>   1</c></rc>
    <rc><c>Mg</c><c>   1</c></rc>
    <rc><c>Mg</c><c>   1</c></rc>
    <rc><c>Mg</c><c>   1</c></rc>
    <rc><c>Mg</c><c>   1</c></rc>
    <rc><c>Mg</c><c>   1</c></rc>
    <rc><c>Mg</c><c>   1</c></rc>
    <rc><c>Mg</c><c>   1</c></rc>
    <rc><c>Mg</c><c>   1</c></rc>
    <rc><c>Mg</c><c>   1</c></rc>
    <rc><c>Mg</c><c>   1</c></rc>
    <rc><c>Mg</c><c>   1</c></rc>
    <rc><c>Mg</c><c>   1</c></rc>
    <rc><c>Mg</c><c>   1</c></rc>
    <rc><c>Mg</c><c>   1</c></rc>
    <rc><c>Mg</c><c>   1</c></rc>
    <rc><c>Mg</c><c>   1</c></rc>
    <rc><c>Mg</c><c>   1</c></rc>
    <rc><c>Mg</c><c>   1</c></rc>
    <rc><c>Mg</c><c>   1</c></rc>
    <rc><c>Mg</c><c>   1</c></rc>
    <rc><c>Mg</c><c>   1</c></rc>
    <rc><c>Mg</c><c>   1</c></rc>
    <rc><c>Mg</c><c>   1</c></rc>
    <rc><c>Mg</c><c>   1</c></rc>
    <rc><c>Mg</c><c>   1</c></rc>
    <rc><c>Mg</c><c>   1</c></rc>
    <rc><c>Mg</c><c>   1</c></rc>
    <rc><c>Mg</c><c>   1</c></rc>
    <rc><c>Mg</c><c>   1</c></rc>
    <rc><c>Mg</c><c>   1</c></rc>
    <rc><c>Mg</c><c>   1</c></rc>
    <rc><c>Mg</c><c>   1</c></rc>
    <rc><c>Mg</c><c>   1</c></rc>
    <rc><c>O </c><c>   2</c></rc>
    <rc><c>O </c><c>   2</c></rc>
    <rc><c>O </c><c>   2</c></rc>
    <rc><c>O </c><c>   2</c></rc>
    <rc><c>O </c><c>   2</c></rc>
    <rc><c>O </c><c>   2</c></rc>
    <rc><c>H </c><c>   3</c></rc>
    <rc><c>H </c><c>   3</c></rc>
    <rc><c>H </c><c>   3</c></rc>
    <rc><c>H </c><c>   3</c></rc>
    <rc><c>H </c><c>   3</c></rc>
    <rc><c>H </c><c>   3</c></rc>
    <rc><c>H </c><c>   3</c></rc>
    <rc><c>H </c><c>   3</c></rc>
    <rc><c>H </c><c>   3</c></rc>
    <rc><c>H </c><c>   3</c></rc>
    <rc><c>H </c><c>   3</c></rc>
    <rc><c>H </c><c>   3</c></rc>
   </set>
  </array>
  <array name="atomtypes" >
   <dimension dim="1">type</dimension>
   <field type="int">atomspertype</field>
   <field type="string">element</field>
   <field>mass</field>
   <field>valence</field>
   <field type="string">pseudopotential</field>
   <set>
    <rc><c>  45</c><c>Mg</c><c>     24.30500000</c><c>      2.00000000</c><c>  PAW_PBE Mg 13Apr2007                  </c></rc>
    <rc><c>   6</c><c>O </c><c>     16.00000000</c><c>      6.00000000</c><c>  PAW_PBE O 08Apr2002                   </c></rc>
    <rc><c>  12</c><c>H </c><c>      1.00000000</c><c>      1.00000000</c><c>  PAW_PBE H 15Jun2001                   </c></rc>
   </set>
  </array>
 </atominfo>
 <structure name="initialpos" >
  <crystal>
   <varray name="basis" >
    <v>       9.55575275       0.00000000       0.00000000 </v>
    <v>      -4.77787638       8.27552464       0.00000000 </v>
    <v>       0.00000000       0.00000000      32.62509537 </v>
   </varray>
   <i name="volume">   2579.95558872 </i>
   <varray name="rec_basis" >
    <v>       0.10464900       0.06041913       0.00000000 </v>
    <v>       0.00000000       0.12083826       0.00000000 </v>
    <v>       0.00000000       0.00000000       0.03065125 </v>
   </varray>
  </crystal>
  <varray name="positions" >
   <v>       0.00000000       0.00000000       0.00000000 </v>
   <v>       0.99979690       0.00188955       0.15822423 </v>
   <v>       0.00236649       0.01388613       0.32947997 </v>
   <v>       0.00000001       0.33333336       0.00000000 </v>
   <v>       0.00027174       0.33629812       0.15802695 </v>
   <v>       0.99590186       0.33745410       0.31237572 </v>
   <v>       0.00000002       0.66666672       0.00000000 </v>
   <v>       0.00126483       0.67020499       0.15742387 </v>
   <v>       0.00028412       0.67342648       0.31464653 </v>
   <v>       0.33333334       0.00000000       0.00000000 </v>
   <v>       0.33329116       0.00170185       0.15756248 </v>
   <v>       0.32879251       0.00725215       0.30995698 </v>
   <v>       0.33333335       0.33333336       0.00000000 </v>
   <v>       0.33200743       0.33339908       0.15714463 </v>
   <v>       0.32395567       0.33354283       0.31319935 </v>
   <v>       0.33333336       0.66666672       0.00000000 </v>
   <v>       0.33263550       0.67059935       0.15802066 </v>
   <v>       0.32247293       0.67392519       0.33039672 </v>
   <v>       0.66666668       0.00000000       0.00000000 </v>
   <v>       0.66536681       0.00131900       0.15795305 </v>
   <v>       0.66898190       0.00862868       0.31434550 </v>
   <v>       0.66666668       0.33333336       0.00000000 </v>
   <v>       0.66629465       0.33512388       0.15833221 </v>
   <v>       0.65463597       0.32396458       0.33274368 </v>
   <v>       0.66666670       0.66666672       0.00000000 </v>
   <v>       0.66826032       0.67014630       0.15698626 </v>
   <v>       0.66113635       0.67796110       0.31362687 </v>
   <v>       0.11111113       0.22222222       0.07982145 </v>
   <v>       0.10936967       0.22414755       0.23637652 </v>
   <v>       0.11111114       0.55555561       0.07982145 </v>
   <v>       0.11433205       0.56215838       0.23759210 </v>
   <v>       0.11111116       0.88888894       0.07982145 </v>
   <v>       0.10653593       0.89219439       0.23639687 </v>
   <v>       0.44444450       0.22222222       0.07982145 </v>
   <v>       0.44961918       0.23330187       0.23686694 </v>
   <v>       0.44444450       0.55555561       0.07982145 </v>
   <v>       0.44535012       0.55922480       0.23359385 </v>
   <v>       0.44444451       0.88888894       0.07982145 </v>
   <v>       0.44364126       0.88738510       0.23751727 </v>
   <v>       0.77777779       0.22222222       0.07982145 </v>
   <v>       0.77568243       0.22828686       0.23650233 </v>
   <v>       0.77777781       0.55555561       0.07982145 </v>
   <v>       0.77759573       0.55912383       0.23500646 </v>
   <v>       0.77777784       0.88888894       0.07982145 </v>
   <v>       0.78058032       0.89346851       0.23787987 </v>
   <v>       0.99358234       0.99173979       0.39597746 </v>
   <v>       0.27870769       0.95487621       0.41233810 </v>
   <v>       0.87495155       0.21812735       0.41472788 </v>
   <v>       0.61631060       0.26967494       0.40060347 </v>
   <v>       0.77408093       0.57273561       0.34533282 </v>
   <v>       0.35142364       0.70716712       0.39587116 </v>
   <v>       0.95999676       0.06045582       0.41058582 </v>
   <v>       0.08815519       0.99884882       0.41008959 </v>
   <v>       0.38285282       0.05642508       0.40979256 </v>
   <v>       0.24115847       0.92931929       0.38315920 </v>
   <v>       0.97350149       0.32353822       0.41801013 </v>
   <v>       0.86622955       0.20395231       0.38393512 </v>
   <v>       0.61250691       0.35144720       0.41789888 </v>
   <v>       0.70441610       0.25266242       0.41166712 </v>
   <v>       0.79284512       0.60595394       0.37424029 </v>
   <v>       0.44283313       0.55346246       0.33636771 </v>
   <v>       0.33056918       0.79264455       0.40661685 </v>
   <v>       0.46272673       0.73997824       0.40353514 </v>
  </varray>
  <varray name="selective"  type="logical" >
   <v type="logical" >  F  F  F </v>
   <v type="logical" >  T  T  T </v>
   <v type="logical" >  T  T  T </v>
   <v type="logical" >  F  F  F </v>
   <v type="logical" >  T  T  T </v>
   <v type="logical" >  T  T  T </v>
   <v type="logical" >  F  F  F </v>
   <v type="logical" >  T  T  T </v>
   <v type="logical" >  T  T  T </v>
   <v type="logical" >  F  F  F </v>
   <v type="logical" >  T  T  T </v>
   <v type="logical" >  T  T  T </v>
   <v type="logical" >  F  F  F </v>
   <v type="logical" >  T  T  T </v>
   <v type="logical" >  T  T  T </v>
   <v type="logical" >  F  F  F </v>
   <v type="logical" >  T  T  T </v>
   <v type="logical" >  T  T  T </v>
   <v type="logical" >  F  F  F </v>
   <v type="logical" >  T  T  T </v>
   <v type="logical" >  T  T  T </v>
   <v type="logical" >  F  F  F </v>
   <v type="logical" >  T  T  T </v>
   <v type="logical" >  T  T  T </v>
   <v type="logical" >  F  F  F </v>
   <v type="logical" >  T  T  T </v>
   <v type="logical" >  T  T  T </v>
   <v type="logical" >  F  F  F </v>
   <v type="logical" >  T  T  T </v>
   <v type="logical" >  F  F  F </v>
   <v type="logical" >  T  T  T </v>
   <v type="logical" >  F  F  F </v>
   <v type="logical" >  T  T  T </v>
   <v type="logical" >  F  F  F </v>
   <v type="logical" >  T  T  T </v>
   <v type="logical" >  F  F  F </v>
   <v type="logical" >  T  T  T </v>
   <v type="logical" >  F  F  F </v>
   <v type="logical" >  T  T  T </v>
   <v type="logical" >  F  F  F </v>
   <v type="logical" >  T  T  T </v>
   <v type="logical" >  F  F  F </v>
   <v type="logical" >  T  T  T </v>
   <v type="logical" >  F  F  F </v>
   <v type="logical" >  T  T  T </v>
   <v type="logical" >  T  T  T </v>
   <v type="logical" >  T  T  T </v>
   <v type="logical" >  T  T  T </v>
   <v type="logical" >  T  T  T </v>
   <v type="logical" >  T  T  T </v>
   <v type="logical" >  T  T  T </v>
   <v type="logical" >  T  T  T </v>
   <v type="logical" >  T  T  T </v>
   <v type="logical" >  T  T  T </v>
   <v type="logical" >  T  T  T </v>
   <v type="logical" >  T  T  T </v>
   <v type="logical" >  T  T  T </v>
   <v type="logical" >  T  T  T </v>
   <v type="logical" >  T  T  T </v>
   <v type="logical" >  T  T  T </v>
   <v type="logical" >  T  T  T </v>
   <v type="logical" >  T  T  T </v>
   <v type="logical" >  T  T  T </v>
  </varray>
  <nose>
   <v>      -3.00000000       0.00000000       0.00010000       0.00010000 </v>
  </nose>
 </structure>
 <calculation>
  <scstep>
   <time name="diag">    0.48    0.48</time>
   <time name="diis">    1.05    1.05</time>
   <time name="orth">    0.07    0.07</time>
   <time name="total">    7.11    7.31</time>
   <dipole>
    <v name="dipole">      0.00000000       0.00000000      -0.00030703 </v>
    <i name="Tr[quadrupol]">  -1833.02785713 </i>
    <i name="Echarged">      0.00000000 </i>
    <i name="Edipol_quadrupol">      0.00000000 </i>
    <i name="Eion">      0.00000000 </i>
   </dipole>
   <energy>
    <i name="alphaZ">     63.16230259 </i>
    <i name="ewald">  13154.85865409 </i>
    <i name="hartreedc"> -16376.91403790 </i>
    <i name="XCdc">  -2050.78539860 </i>
    <i name="pawpsdc">   5135.15659847 </i>
    <i name="pawaedc">  -2719.01140655 </i>
    <i name="eentropy">      0.00000000 </i>
    <i name="bandstr">    212.95932901 </i>
    <i name="atom">   3827.98814510 </i>
    <i name="e_fr_energy">   1247.41418621 </i>
    <i name="e_wo_entrp">   1247.41418621 </i>
    <i name="e_0_energy">   1247.41418621 </i>
   </energy>
  </scstep>
  <scstep>
   <time name="diag">    0.48    0.51</time>
   <time name="diis">    1.05    1.05</time>
   <time name="orth">    0.07    0.07</time>
   <time name="total">    1.61    1.63</time>
   <dipole>
    <v name="dipole">      0.00000000       0.00000000      -0.00030703 </v>
    <i name="Tr[quadrupol]">  -1833.02785713 </i>
    <i name="Echarged">      0.00000000 </i>
    <i name="Edipol_quadrupol">      0.00000000 </i>
    <i name="Eion">      0.00000000 </i>
   </dipole>
   <energy>
    <i name="e_fr_energy">    546.86360542 </i>
    <i name="e_wo_entrp">    546.86360542 </i>
    <i name="e_0_energy">    546.86360542 </i>
   </energy>
  </scstep>
  <scstep>
   <time name="diag">    0.48    0.51</time>
   <time name="diis">    1.05    1.05</time>
   <time name="orth">    0.07    0.07</time>
   <time name="total">    1.60    1.63</time>
   <dipole>
    <v name="dipole">      0.00000000       0.00000000      -0.00030703 </v>
    <i name="Tr[quadrupol]">  -1833.02785713 </i>
    <i name="Echarged">      0.00000000 </i>
    <i name="Edipol_quadrupol">      0.00000000 </i>
    <i name="Eion">      0.00000000 </i>
   </dipole>
   <energy>
    <i name="e_fr_energy">    310.24559128 </i>
    <i name="e_wo_entrp">    310.24559128 </i>
    <i name="e_0_energy">    310.24559128 </i>
   </energy>
  </scstep>
  <scstep>
   <time name="diag">    0.48    0.51</time>
   <time name="diis">    1.05    1.05</time>
   <time name="orth">    0.07    0.07</time>
   <time name="total">    1.61    1.64</time>
   <dipole>
    <v name="dipole">      0.00000000       0.00000000      -0.00030703 </v>
    <i name="Tr[quadrupol]">  -1833.02785713 </i>
    <i name="Echarged">      0.00000000 </i>
    <i name="Edipol_quadrupol">      0.00000000 </i>
    <i name="Eion">      0.00000000 </i>
   </dipole>
   <energy>
    <i name="e_fr_energy">    135.49107908 </i>
    <i name="e_wo_entrp">    135.49107908 </i>
    <i name="e_0_energy">    135.49107908 </i>
   </energy>
  </scstep>
  <scstep>
   <time name="diag">    0.49    0.51</time>
   <time name="diis">    1.06    1.06</time>
   <time name="orth">    0.07    0.07</time>
   <time name="total">    1.62    1.64</time>
   <dipole>
    <v name="dipole">      0.00000000       0.00000000      -0.00030703 </v>
    <i name="Tr[quadrupol]">  -1833.02785713 </i>
    <i name="Echarged">      0.00000000 </i>
    <i name="Edipol_quadrupol">      0.00000000 </i>
    <i name="Eion">      0.00000000 </i>
   </dipole>
   <energy>
    <i name="e_fr_energy">     16.81620736 </i>
    <i name="e_wo_entrp">     16.81620736 </i>
    <i name="e_0_energy">     16.81620736 </i>
   </energy>
  </scstep>
  <scstep>
   <time name="diag">    0.49    0.51</time>
   <time name="diis">    1.07    1.07</time>
   <time name="orth">    0.07    0.07</time>
   <time name="total">    1.64    1.66</time>
   <dipole>
    <v name="dipole">      0.00000000       0.00000000      -0.00030703 </v>
    <i name="Tr[quadrupol]">  -1833.02785713 </i>
    <i name="Echarged">      0.00000000 </i>
    <i name="Edipol_quadrupol">      0.00000000 </i>
    <i name="Eion">      0.00000000 </i>
   </dipole>
   <energy>
    <i name="e_fr_energy">    -46.08072079 </i>
    <i name="e_wo_entrp">    -46.08072079 </i>
    <i name="e_0_energy">    -46.08072079 </i>
   </energy>
  </scstep>
  <scstep>
   <time name="diag">    0.49    0.51</time>
   <time name="diis">    1.05    1.05</time>
   <time name="orth">    0.07    0.07</time>
   <time name="total">    1.62    1.64</time>
   <dipole>
    <v name="dipole">      0.00000000       0.00000000      -0.00030703 </v>
    <i name="Tr[quadrupol]">  -1833.02785713 </i>
    <i name="Echarged">      0.00000000 </i>
    <i name="Edipol_quadrupol">      0.00000000 </i>
    <i name="Eion">      0.00000000 </i>
   </dipole>
   <energy>
    <i name="e_fr_energy">    -72.27366711 </i>
    <i name="e_wo_entrp">    -72.27366711 </i>
    <i name="e_0_energy">    -72.27366711 </i>
   </energy>
  </scstep>
  <scstep>
   <time name="diag">    0.49    0.51</time>
   <time name="diis">    1.05    1.05</time>
   <time name="orth">    0.07    0.07</time>
   <time name="total">    1.61    1.63</time>
   <dipole>
    <v name="dipole">      0.00000000       0.00000000      -0.00030703 </v>
    <i name="Tr[quadrupol]">  -1833.02785713 </i>
    <i name="Echarged">      0.00000000 </i>
    <i name="Edipol_quadrupol">      0.00000000 </i>
    <i name="Eion">      0.00000000 </i>
   </dipole>
   <energy>
    <i name="e_fr_energy">    -78.70398082 </i>
    <i name="e_wo_entrp">    -78.70398082 </i>
    <i name="e_0_energy">    -78.70398082 </i>
   </energy>
  </scstep>
  <scstep>
   <time name="diag">    0.48    0.51</time>
   <time name="diis">    2.72    2.72</time>
   <time name="orth">    0.07    0.07</time>
   <time name="total">    3.28    3.31</time>
   <dipole>
    <v name="dipole">      0.00000000       0.00000000      -0.00030703 </v>
    <i name="Tr[quadrupol]">  -1833.02785713 </i>
    <i name="Echarged">      0.00000000 </i>
    <i name="Edipol_quadrupol">      0.00000000 </i>
    <i name="Eion">      0.00000000 </i>
   </dipole>
   <energy>
    <i name="e_fr_energy">    -80.73665962 </i>
    <i name="e_wo_entrp">    -80.73665962 </i>
    <i name="e_0_energy">    -80.73665962 </i>
   </energy>
  </scstep>
  <scstep>
   <time name="diag">    0.48    0.51</time>
   <time name="diis">    3.23    3.23</time>
   <time name="orth">    0.07    0.07</time>
   <time name="total">    3.79    3.82</time>
   <dipole>
    <v name="dipole">      0.00000000       0.00000000      -0.00030703 </v>
    <i name="Tr[quadrupol]">  -1833.02785713 </i>
    <i name="Echarged">      0.00000000 </i>
    <i name="Edipol_quadrupol">      0.00000000 </i>
    <i name="Eion">      0.00000000 </i>
   </dipole>
   <energy>
    <i name="e_fr_energy">    -81.02925525 </i>
    <i name="e_wo_entrp">    -81.02925525 </i>
    <i name="e_0_energy">    -81.02925525 </i>
   </energy>
  </scstep>
  <scstep>
   <time name="diag">    0.48    0.51</time>
   <time name="diis">    3.12    3.12</time>
   <time name="orth">    0.07    0.07</time>
   <time name="total">    3.68    3.70</time>
   <dipole>
    <v name="dipole">      0.00000000       0.00000000      -0.00030703 </v>
    <i name="Tr[quadrupol]">  -1833.02785713 </i>
    <i name="Echarged">      0.00000000 </i>
    <i name="Edipol_quadrupol">      0.00000000 </i>
    <i name="Eion">      0.00000000 </i>
   </dipole>
   <energy>
    <i name="e_fr_energy">    -81.02798084 </i>
    <i name="e_wo_entrp">    -81.02798084 </i>
    <i name="e_0_energy">    -81.02798084 </i>
   </energy>
  </scstep>
  <scstep>
   <time name="diag">    0.49    0.51</time>
   <time name="diis">    3.25    3.25</time>
   <time name="orth">    0.07    0.07</time>
   <time name="total">    3.94    3.97</time>
   <dipole>
    <v name="dipole">      0.00000000       0.00000000      -0.00030703 </v>
    <i name="Tr[quadrupol]">  -1833.02785713 </i>
    <i name="Echarged">      0.00000000 </i>
    <i name="Edipol_quadrupol">      0.00000000 </i>
    <i name="Eion">      0.00000000 </i>
   </dipole>
   <energy>
    <i name="e_fr_energy">    -81.03053480 </i>
    <i name="e_wo_entrp">    -81.03053480 </i>
    <i name="e_0_energy">    -81.03053480 </i>
   </energy>
  </scstep>
  <scstep>
   <time name="diag">    0.49    0.49</time>
   <time name="diis">    2.61    2.62</time>
   <time name="orth">    0.07    0.07</time>
   <time name="total">    8.37    8.39</time>
   <dipole>
    <v name="dipole">      0.00000000       0.00000000       0.16010085 </v>
    <i name="Tr[quadrupol]">  -1845.31542180 </i>
    <i name="Echarged">      0.00000000 </i>
    <i name="Edipol_quadrupol">      0.00000000 </i>
    <i name="Eion">      0.00000000 </i>
   </dipole>
   <energy>
    <i name="e_fr_energy">    -70.36419865 </i>
    <i name="e_wo_entrp">    -70.36419865 </i>
    <i name="e_0_energy">    -70.36419865 </i>
   </energy>
  </scstep>
  <scstep>
   <time name="diag">    0.47    0.47</time>
   <time name="diis">    2.93    2.93</time>
   <time name="orth">    0.07    0.07</time>
   <time name="total">    8.65    8.68</time>
   <dipole>
    <v name="dipole">      0.00000000       0.00000000      -1.33939184 </v>
    <i name="Tr[quadrupol]">  -1837.06102316 </i>
    <i name="Echarged">      0.00000000 </i>
    <i name="Edipol_quadrupol">      0.00000000 </i>
    <i name="Eion">      0.00000000 </i>
   </dipole>
   <energy>
    <i name="e_fr_energy">    -77.42788689 </i>
    <i name="e_wo_entrp">    -77.42788689 </i>
    <i name="e_0_energy">    -77.42788689 </i>
   </energy>
  </scstep>
  <scstep>
   <time name="diag">    0.48    0.48</time>
   <time name="diis">    2.64    2.64</time>
   <time name="orth">    0.07    0.07</time>
   <time name="total">    8.56    8.60</time>
   <dipole>
    <v name="dipole">      0.00000000       0.00000000       0.08793139 </v>
    <i name="Tr[quadrupol]">  -1845.80730389 </i>
    <i name="Echarged">      0.00000000 </i>
    <i name="Edipol_quadrupol">      0.00000000 </i>
    <i name="Eion">      0.00000000 </i>
   </dipole>
   <energy>
    <i name="e_fr_energy">    -70.39501909 </i>
    <i name="e_wo_entrp">    -70.39501909 </i>
    <i name="e_0_energy">    -70.39501909 </i>
   </energy>
  </scstep>
  <scstep>
   <time name="diag">    0.47    0.47</time>
   <time name="diis">    2.72    2.72</time>
   <time name="orth">    0.07    0.07</time>
   <time name="total">    8.45    8.48</time>
   <dipole>
    <v name="dipole">      0.00000000       0.00000000      -0.28655824 </v>
    <i name="Tr[quadrupol]">  -1848.67728276 </i>
    <i name="Echarged">      0.00000000 </i>
    <i name="Edipol_quadrupol">      0.00000000 </i>
    <i name="Eion">      0.00000000 </i>
   </dipole>
   <energy>
    <i name="e_fr_energy">    -69.56617335 </i>
    <i name="e_wo_entrp">    -69.56617335 </i>
    <i name="e_0_energy">    -69.56617335 </i>
   </energy>
  </scstep>
  <scstep>
   <time name="diag">    0.47    0.48</time>
   <time name="diis">    2.48    2.48</time>
   <time name="orth">    0.07    0.07</time>
   <time name="total">    8.23    8.25</time>
   <dipole>
    <v name="dipole">      0.00000000       0.00000000      -0.50457739 </v>
    <i name="Tr[quadrupol]">  -1847.81862495 </i>
    <i name="Echarged">      0.00000000 </i>
    <i name="Edipol_quadrupol">      0.00000000 </i>
    <i name="Eion">      0.00000000 </i>
   </dipole>
   <energy>
    <i name="e_fr_energy">    -69.42747172 </i>
    <i name="e_wo_entrp">    -69.42747172 </i>
    <i name="e_0_energy">    -69.42747172 </i>
   </energy>
  </scstep>
  <scstep>
   <time name="diag">    0.47    0.47</time>
   <time name="diis">    2.93    2.93</time>
   <time name="orth">    0.07    0.07</time>
   <time name="total">    8.68    8.70</time>
   <dipole>
    <v name="dipole">      0.00000000       0.00000000      -0.56347851 </v>
    <i name="Tr[quadrupol]">  -1848.90119192 </i>
    <i name="Echarged">      0.00000000 </i>
    <i name="Edipol_quadrupol">      0.00000000 </i>
    <i name="Eion">      0.00000000 </i>
   </dipole>
   <energy>
    <i name="e_fr_energy">    -69.40411766 </i>
    <i name="e_wo_entrp">    -69.40411766 </i>
    <i name="e_0_energy">    -69.40411766 </i>
   </energy>
  </scstep>
  <scstep>
   <time name="diag">    0.48    0.48</time>
   <time name="diis">    2.61    2.61</time>
   <time name="orth">    0.07    0.07</time>
   <time name="total">    8.35    8.38</time>
   <dipole>
    <v name="dipole">      0.00000000       0.00000000      -0.60620503 </v>
    <i name="Tr[quadrupol]">  -1850.07157334 </i>
    <i name="Echarged">      0.00000000 </i>
    <i name="Edipol_quadrupol">      0.00000000 </i>
    <i name="Eion">      0.00000000 </i>
   </dipole>
   <energy>
    <i name="e_fr_energy">    -69.40346685 </i>
    <i name="e_wo_entrp">    -69.40346685 </i>
    <i name="e_0_energy">    -69.40346685 </i>
   </energy>
  </scstep>
  <scstep>
   <time name="diag">    0.60    0.60</time>
   <time name="diis">    2.83    2.83</time>
   <time name="orth">    0.07    0.07</time>
   <time name="total">    8.71    8.74</time>
   <dipole>
    <v name="dipole">      0.00000000       0.00000000      -0.59517359 </v>
    <i name="Tr[quadrupol]">  -1850.63305080 </i>
    <i name="Echarged">      0.00000000 </i>
    <i name="Edipol_quadrupol">      0.00000000 </i>
    <i name="Eion">      0.00000000 </i>
   </dipole>
   <energy>
    <i name="e_fr_energy">    -69.40367105 </i>
    <i name="e_wo_entrp">    -69.40367105 </i>
    <i name="e_0_energy">    -69.40367105 </i>
   </energy>
  </scstep>
  <scstep>
   <time name="diag">    0.47    0.47</time>
   <time name="diis">    2.69    2.69</time>
   <time name="orth">    0.07    0.07</time>
   <time name="total">    8.44    8.46</time>
   <dipole>
    <v name="dipole">      0.00000000       0.00000000      -0.60163307 </v>
    <i name="Tr[quadrupol]">  -1851.20169655 </i>
    <i name="Echarged">      0.00000000 </i>
    <i name="Edipol_quadrupol">      0.00000000 </i>
    <i name="Eion">      0.00000000 </i>
   </dipole>
   <energy>
    <i name="e_fr_energy">    -69.40212666 </i>
    <i name="e_wo_entrp">    -69.40212666 </i>
    <i name="e_0_energy">    -69.40212666 </i>
   </energy>
  </scstep>
  <scstep>
   <time name="diag">    0.47    0.48</time>
   <time name="diis">    2.62    2.63</time>
   <time name="orth">    0.07    0.07</time>
   <time name="total">    8.35    8.39</time>
   <dipole>
    <v name="dipole">      0.00000000       0.00000000      -0.58969028 </v>
    <i name="Tr[quadrupol]">  -1851.49309045 </i>
    <i name="Echarged">      0.00000000 </i>
    <i name="Edipol_quadrupol">      0.00000000 </i>
    <i name="Eion">      0.00000000 </i>
   </dipole>
   <energy>
    <i name="e_fr_energy">    -69.39797204 </i>
    <i name="e_wo_entrp">    -69.39797204 </i>
    <i name="e_0_energy">    -69.39797204 </i>
   </energy>
  </scstep>
  <scstep>
   <time name="diag">    0.47    0.47</time>
   <time name="diis">    2.38    2.39</time>
   <time name="orth">    0.07    0.07</time>
   <time name="total">    8.22    8.26</time>
   <dipole>
    <v name="dipole">      0.00000000       0.00000000      -0.58222896 </v>
    <i name="Tr[quadrupol]">  -1851.71701099 </i>
    <i name="Echarged">      0.00000000 </i>
    <i name="Edipol_quadrupol">      0.00000000 </i>
    <i name="Eion">      0.00000000 </i>
   </dipole>
   <energy>
    <i name="e_fr_energy">    -69.39395141 </i>
    <i name="e_wo_entrp">    -69.39395141 </i>
    <i name="e_0_energy">    -69.39395141 </i>
   </energy>
  </scstep>
  <scstep>
   <time name="diag">    0.47    0.47</time>
   <time name="diis">    2.19    2.19</time>
   <time name="orth">    0.07    0.07</time>
   <time name="total">    7.92    7.96</time>
   <dipole>
    <v name="dipole">      0.00000000       0.00000000      -0.56686766 </v>
    <i name="Tr[quadrupol]">  -1851.93301671 </i>
    <i name="Echarged">      0.00000000 </i>
    <i name="Edipol_quadrupol">      0.00000000 </i>
    <i name="Eion">      0.00000000 </i>
   </dipole>
   <energy>
    <i name="e_fr_energy">    -69.39298971 </i>
    <i name="e_wo_entrp">    -69.39298971 </i>
    <i name="e_0_energy">    -69.39298971 </i>
   </energy>
  </scstep>
  <scstep>
   <time name="diag">    0.47    0.47</time>
   <time name="diis">    2.08    2.09</time>
   <time name="orth">    0.07    0.07</time>
   <time name="total">    7.83    7.86</time>
   <dipole>
    <v name="dipole">      0.00000000       0.00000000      -0.56021431 </v>
    <i name="Tr[quadrupol]">  -1852.01951983 </i>
    <i name="Echarged">      0.00000000 </i>
    <i name="Edipol_quadrupol">      0.00000000 </i>
    <i name="Eion">      0.00000000 </i>
   </dipole>
   <energy>
    <i name="e_fr_energy">    -69.39349450 </i>
    <i name="e_wo_entrp">    -69.39349450 </i>
    <i name="e_0_energy">    -69.39349450 </i>
   </energy>
  </scstep>
  <scstep>
   <time name="diag">    0.56    0.56</time>
   <time name="diis">    1.87    1.88</time>
   <time name="orth">    0.07    0.07</time>
   <time name="total">    7.84    7.87</time>
   <dipole>
    <v name="dipole">      0.00000000       0.00000000      -0.55297474 </v>
    <i name="Tr[quadrupol]">  -1852.09494009 </i>
    <i name="Echarged">      0.00000000 </i>
    <i name="Edipol_quadrupol">      0.00000000 </i>
    <i name="Eion">      0.00000000 </i>
   </dipole>
   <energy>
    <i name="e_fr_energy">    -69.39349911 </i>
    <i name="e_wo_entrp">    -69.39349911 </i>
    <i name="e_0_energy">    -69.39349911 </i>
   </energy>
  </scstep>
  <scstep>
   <time name="diag">    0.47    0.48</time>
   <time name="diis">    1.88    1.88</time>
   <time name="orth">    0.07    0.07</time>
   <time name="total">    7.63    7.66</time>
   <dipole>
    <v name="dipole">      0.00000000       0.00000000      -0.54954612 </v>
    <i name="Tr[quadrupol]">  -1852.08962250 </i>
    <i name="Echarged">      0.00000000 </i>
    <i name="Edipol_quadrupol">      0.00000000 </i>
    <i name="Eion">      0.00000000 </i>
   </dipole>
   <energy>
    <i name="e_fr_energy">    -69.39335697 </i>
    <i name="e_wo_entrp">    -69.39335697 </i>
    <i name="e_0_energy">    -69.39335697 </i>
   </energy>
  </scstep>
  <scstep>
   <time name="diag">    0.47    0.47</time>
   <time name="diis">    1.68    1.68</time>
   <time name="orth">    0.07    0.07</time>
   <time name="total">    7.41    7.45</time>
   <dipole>
    <v name="dipole">      0.00000000       0.00000000      -0.54769735 </v>
    <i name="Tr[quadrupol]">  -1852.08433443 </i>
    <i name="Echarged">      0.00000000 </i>
    <i name="Edipol_quadrupol">      0.00000000 </i>
    <i name="Eion">      0.00000000 </i>
   </dipole>
   <energy>
    <i name="e_fr_energy">    -69.39335798 </i>
    <i name="e_wo_entrp">    -69.39335798 </i>
    <i name="e_0_energy">    -69.39335798 </i>
   </energy>
  </scstep>
  <scstep>
   <time name="diag">    0.47    0.47</time>
   <time name="diis">    1.66    1.66</time>
   <time name="orth">    0.07    0.07</time>
   <time name="total">    7.40    7.43</time>
   <dipole>
    <v name="dipole">      0.00000000       0.00000000      -0.54724371 </v>
    <i name="Tr[quadrupol]">  -1852.01006227 </i>
    <i name="Echarged">      0.00000000 </i>
    <i name="Edipol_quadrupol">      0.00000000 </i>
    <i name="Eion">      0.00000000 </i>
   </dipole>
   <energy>
    <i name="e_fr_energy">    -69.39340061 </i>
    <i name="e_wo_entrp">    -69.39340061 </i>
    <i name="e_0_energy">    -69.39340061 </i>
   </energy>
  </scstep>
  <scstep>
   <time name="diag">    0.47    0.48</time>
   <time name="diis">    1.66    1.67</time>
   <time name="orth">    0.07    0.07</time>
   <time name="total">    7.40    7.44</time>
   <dipole>
    <v name="dipole">      0.00000000       0.00000000      -0.54757712 </v>
    <i name="Tr[quadrupol]">  -1851.79529910 </i>
    <i name="Echarged">      0.00000000 </i>
    <i name="Edipol_quadrupol">      0.00000000 </i>
    <i name="Eion">      0.00000000 </i>
   </dipole>
   <energy>
    <i name="e_fr_energy">    -69.39341818 </i>
    <i name="e_wo_entrp">    -69.39341818 </i>
    <i name="e_0_energy">    -69.39341818 </i>
   </energy>
  </scstep>
  <scstep>
   <time name="diag">    0.47    0.47</time>
   <time name="diis">    1.67    1.67</time>
   <time name="orth">    0.07    0.07</time>
   <time name="total">    7.61    7.64</time>
   <dipole>
    <v name="dipole">      0.00000000       0.00000000      -0.54756234 </v>
    <i name="Tr[quadrupol]">  -1852.50884822 </i>
    <i name="Echarged">      0.00000000 </i>
    <i name="Edipol_quadrupol">      0.00000000 </i>
    <i name="Eion">      0.00000000 </i>
   </dipole>
   <energy>
    <i name="e_fr_energy">    -69.39340215 </i>
    <i name="e_wo_entrp">    -69.39340215 </i>
    <i name="e_0_energy">    -69.39340215 </i>
   </energy>
  </scstep>
  <scstep>
   <time name="diag">    0.53    0.53</time>
   <time name="diis">    1.60    1.61</time>
   <time name="orth">    0.07    0.07</time>
   <time name="total">    7.42    7.46</time>
   <dipole>
    <v name="dipole">      0.00000000       0.00000000      -0.54799741 </v>
    <i name="Tr[quadrupol]">  -1852.65064306 </i>
    <i name="Echarged">      0.00000000 </i>
    <i name="Edipol_quadrupol">      0.00000000 </i>
    <i name="Eion">      0.00000000 </i>
   </dipole>
   <energy>
    <i name="e_fr_energy">    -69.39345439 </i>
    <i name="e_wo_entrp">    -69.39345439 </i>
    <i name="e_0_energy">    -69.39345439 </i>
   </energy>
  </scstep>
  <scstep>
   <time name="diag">    0.47    0.47</time>
   <time name="diis">    1.74    1.74</time>
   <time name="orth">    0.07    0.07</time>
   <time name="total">    7.35    7.37</time>
   <dipole>
    <v name="dipole">      0.00000000       0.00000000      -0.54824405 </v>
    <i name="Tr[quadrupol]">  -1852.72297033 </i>
    <i name="Echarged">      0.00000000 </i>
    <i name="Edipol_quadrupol">      0.00000000 </i>
    <i name="Eion">      0.00000000 </i>
   </dipole>
   <energy>
    <i name="alphaZ">     65.01743189 </i>
    <i name="ewald">  13154.85865409 </i>
    <i name="hartreedc"> -16622.42710315 </i>
    <i name="XCdc">  -2034.53430780 </i>
    <i name="pawpsdc">   5962.96210268 </i>
    <i name="pawaedc">  -3549.16888688 </i>
    <i name="eentropy">      0.00000000 </i>
    <i name="bandstr">   -874.08948973 </i>
    <i name="atom">   3827.98814510 </i>
    <i name="e_fr_energy">    -69.39345379 </i>
    <i name="e_wo_entrp">    -69.39345379 </i>
    <i name="e_0_energy">    -69.39345379 </i>
   </energy>
  </scstep>
  <structure>
   <crystal>
    <varray name="basis" >
     <v>       9.55575275       0.00000000       0.00000000 </v>
     <v>      -4.77787638       8.27552464       0.00000000 </v>
     <v>       0.00000000       0.00000000      32.62509537 </v>
    </varray>
    <i name="volume">   2579.95558872 </i>
    <varray name="rec_basis" >
     <v>       0.10464900       0.06041913       0.00000000 </v>
     <v>       0.00000000       0.12083826       0.00000000 </v>
     <v>       0.00000000       0.00000000       0.03065125 </v>
    </varray>
   </crystal>
   <varray name="positions" >
    <v>       0.00000000       0.00000000       0.00000000 </v>
    <v>       0.99979690       0.00188955       0.15822423 </v>
    <v>       0.00236649       0.01388613       0.32947997 </v>
    <v>       0.00000001       0.33333336       0.00000000 </v>
    <v>       0.00027174       0.33629812       0.15802695 </v>
    <v>       0.99590186       0.33745410       0.31237572 </v>
    <v>       0.00000002       0.66666672       0.00000000 </v>
    <v>       0.00126483       0.67020499       0.15742387 </v>
    <v>       0.00028412       0.67342648       0.31464653 </v>
    <v>       0.33333334       0.00000000       0.00000000 </v>
    <v>       0.33329116       0.00170185       0.15756248 </v>
    <v>       0.32879251       0.00725215       0.30995698 </v>
    <v>       0.33333335       0.33333336       0.00000000 </v>
    <v>       0.33200743       0.33339908       0.15714463 </v>
    <v>       0.32395567       0.33354283       0.31319935 </v>
    <v>       0.33333336       0.66666672       0.00000000 </v>
    <v>       0.33263550       0.67059935       0.15802066 </v>
    <v>       0.32247293       0.67392519       0.33039672 </v>
    <v>       0.66666668       0.00000000       0.00000000 </v>
    <v>       0.66536681       0.00131900       0.15795305 </v>
    <v>       0.66898190       0.00862868       0.31434550 </v>
    <v>       0.66666668       0.33333336       0.00000000 </v>
    <v>       0.66629465       0.33512388       0.15833221 </v>
    <v>       0.65463597       0.32396458       0.33274368 </v>
    <v>       0.66666670       0.66666672       0.00000000 </v>
    <v>       0.66826032       0.67014630       0.15698626 </v>
    <v>       0.66113635       0.67796110       0.31362687 </v>
    <v>       0.11111113       0.22222222       0.07982145 </v>
    <v>       0.10936967       0.22414755       0.23637652 </v>
    <v>       0.11111114       0.55555561       0.07982145 </v>
    <v>       0.11433205       0.56215838       0.23759210 </v>
    <v>       0.11111116       0.88888894       0.07982145 </v>
    <v>       0.10653593       0.89219439       0.23639687 </v>
    <v>       0.44444450       0.22222222       0.07982145 </v>
    <v>       0.44961918       0.23330187       0.23686694 </v>
    <v>       0.44444450       0.55555561       0.07982145 </v>
    <v>       0.44535012       0.55922480       0.23359385 </v>
    <v>       0.44444451       0.88888894       0.07982145 </v>
    <v>       0.44364126       0.88738510       0.23751727 </v>
    <v>       0.77777779       0.22222222       0.07982145 </v>
    <v>       0.77568243       0.22828686       0.23650233 </v>
    <v>       0.77777781       0.55555561       0.07982145 </v>
    <v>       0.77759573       0.55912383       0.23500646 </v>
    <v>       0.77777784       0.88888894       0.07982145 </v>
    <v>       0.78058032       0.89346851       0.23787987 </v>
    <v>       0.99358234       0.99173979       0.39597746 </v>
    <v>       0.27870769       0.95487621       0.41233810 </v>
    <v>       0.87495155       0.21812735       0.41472788 </v>
    <v>       0.61631060       0.26967494       0.40060347 </v>
    <v>       0.77408093       0.57273561       0.34533282 </v>
    <v>       0.35142364       0.70716712       0.39587116 </v>
    <v>       0.95999676       0.06045582       0.41058582 </v>
    <v>       0.08815519       0.99884882       0.41008959 </v>
    <v>       0.38285282       0.05642508       0.40979256 </v>
    <v>       0.24115847       0.92931929       0.38315920 </v>
    <v>       0.97350149       0.32353822       0.41801013 </v>
    <v>       0.86622955       0.20395231       0.38393512 </v>
    <v>       0.61250691       0.35144720       0.41789888 </v>
    <v>       0.70441610       0.25266242       0.41166712 </v>
    <v>       0.79284512       0.60595394       0.37424029 </v>
    <v>       0.44283313       0.55346246       0.33636771 </v>
    <v>       0.33056918       0.79264455       0.40661685 </v>
    <v>       0.46272673       0.73997824       0.40353514 </v>
   </varray>
  </structure>
  <varray name="forces" >
   <v>       0.01067699      -0.00390438       0.00570354 </v>
   <v>       0.01370266       0.01068791       0.01006077 </v>
   <v>      -0.00547006      -0.00291142      -0.01049745 </v>
   <v>      -0.02150001      -0.00733218      -0.02692366 </v>
   <v>       0.00499311      -0.00074036      -0.01141177 </v>
   <v>       0.00181703      -0.00573079       0.01886293 </v>
   <v>       0.02693733       0.02575694      -0.03419818 </v>
   <v>       0.00458609       0.01043643       0.00712839 </v>
   <v>       0.00587252       0.00873460      -0.01180942 </v>
   <v>      -0.01344149       0.00430696      -0.01124714 </v>
   <v>      -0.01216707      -0.00611496      -0.00085988 </v>
   <v>      -0.01606822       0.00858309      -0.00849708 </v>
   <v>      -0.00083927      -0.01879341      -0.01347334 </v>
   <v>       0.00439746      -0.00822084      -0.01698743 </v>
   <v>       0.01856955      -0.00359739       0.00286751 </v>
   <v>      -0.02431053      -0.00871733      -0.01020776 </v>
   <v>      -0.00305918       0.01035201       0.00085557 </v>
   <v>       0.00214632      -0.01469159      -0.01412782 </v>
   <v>       0.00108055       0.04598262      -0.00730261 </v>
   <v>      -0.00363662      -0.00502205      -0.00814556 </v>
   <v>       0.01395342       0.00203029       0.00921574 </v>
   <v>       0.02445375      -0.04737350      -0.02086075 </v>
   <v>      -0.00004606       0.00838985      -0.00205616 </v>
   <v>      -0.00603176      -0.01801979       0.01179461 </v>
   <v>      -0.00701199       0.02162912      -0.04252419 </v>
   <v>      -0.00650670      -0.00758547      -0.01279001 </v>
   <v>      -0.00489843       0.00574239       0.00682923 </v>
   <v>       0.00059649       0.00333662       0.03095292 </v>
   <v>       0.00187211      -0.01174478       0.00584945 </v>
   <v>       0.01023377       0.01329236       0.03242093 </v>
   <v>       0.00507431       0.01168026       0.00473006 </v>
   <v>      -0.00709546       0.01029158      -0.01452796 </v>
   <v>       0.00617106       0.00204441       0.01071246 </v>
   <v>      -0.00589334       0.01207329       0.03658536 </v>
   <v>      -0.00440557      -0.00772446       0.00065324 </v>
   <v>      -0.00841932       0.00371699       0.01374909 </v>
   <v>      -0.01632657       0.00733000      -0.00062721 </v>
   <v>      -0.01074113      -0.00999250       0.03014585 </v>
   <v>      -0.00160719      -0.01418043       0.00206122 </v>
   <v>      -0.01011678       0.01911207       0.01356807 </v>
   <v>      -0.00084065      -0.00099019      -0.00180167 </v>
   <v>      -0.00058359       0.00231039       0.05954062 </v>
   <v>       0.01117538      -0.00979180      -0.01511230 </v>
   <v>       0.00083711       0.00968905       0.02774317 </v>
   <v>      -0.00495150       0.01236796       0.00100224 </v>
   <v>      -0.00012967      -0.00483912       0.00498572 </v>
   <v>      -0.00085758      -0.00655084       0.03128981 </v>
   <v>      -0.00020224      -0.00718854       0.03741825 </v>
   <v>       0.01034730      -0.02242970       0.00304464 </v>
   <v>       0.02050222      -0.00862187      -0.04793392 </v>
   <v>      -0.00584660      -0.00678477       0.00614458 </v>
   <v>      -0.00685840       0.00008960      -0.00863691 </v>
   <v>       0.00362729      -0.00278511      -0.00755388 </v>
   <v>       0.00090453       0.00157762      -0.01068709 </v>
   <v>      -0.01130784      -0.00840801      -0.01735688 </v>
   <v>       0.00019452       0.00591534      -0.01174738 </v>
   <v>       0.00284389      -0.00629806      -0.02880556 </v>
   <v>      -0.00529197       0.00956602       0.01370537 </v>
   <v>       0.00791468      -0.00312194      -0.00897886 </v>
   <v>       0.00527467      -0.00284369       0.01519772 </v>
   <v>      -0.00023527      -0.00904405       0.00088739 </v>
   <v>      -0.00581927       0.00113773      -0.00874690 </v>
   <v>       0.01176123       0.01393183      -0.00926968 </v>
  </varray>
  <varray name="stress" >
   <v>      -5.28772920      -0.21382203       0.21588343 </v>
   <v>      -0.21382203      -4.60759943      -0.48328963 </v>
   <v>       0.21588327      -0.48328987      -0.18145597 </v>
  </varray>
  <energy>
   <i name="e_fr_energy">    -69.39345379 </i>
   <i name="e_wo_entrp">    -69.39345379 </i>
   <i name="e_0_energy">      0.00000000 </i>
  </energy>
  <time name="totalsc">  223.35  225.08</time>
  <eigenvalues>
   <array>
    <dimension dim="1">band</dimension>
    <dimension dim="2">kpoint</dimension>
    <dimension dim="3">spin</dimension>
    <field>eigene</field>
    <field>occ</field>
    <set>
     <set comment="spin 1">
      <set comment="kpoint 1">
       <r>  -24.1670    1.0000 </r>
       <r>  -23.8127    1.0000 </r>
       <r>  -23.7235    1.0000 </r>
       <r>  -23.5285    1.0000 </r>
       <r>  -23.2844    1.0000 </r>
       <r>  -22.1300    1.0000 </r>
       <r>  -12.1328    1.0000 </r>
       <r>  -11.8499    1.0000 </r>
       <r>  -11.7186    1.0000 </r>
       <r>  -11.2367    1.0000 </r>
       <r>  -10.9779    1.0000 </r>
       <r>   -9.7832    1.0000 </r>
       <r>   -8.9565    1.0000 </r>
       <r>   -8.6379    1.0000 </r>
       <r>   -8.5853    1.0000 </r>
       <r>   -8.1219    1.0000 </r>
       <r>   -7.8414    1.0000 </r>
       <r>   -7.2940    1.0000 </r>
       <r>   -7.0848    1.0000 </r>
       <r>   -6.9600    1.0000 </r>
       <r>   -6.6582    1.0000 </r>
       <r>   -6.4963    1.0000 </r>
       <r>   -6.3810    1.0000 </r>
       <r>   -6.2738    1.0000 </r>
       <r>   -6.0599    1.0000 </r>
       <r>   -6.0143    1.0000 </r>
       <r>   -5.8255    1.0000 </r>
       <r>   -5.4716    1.0000 </r>
       <r>   -5.1136    1.0000 </r>
       <r>   -5.1046    1.0000 </r>
       <r>   -5.0917    1.0000 </r>
       <r>   -5.0823    1.0000 </r>
       <r>   -5.0701    1.0000 </r>
       <r>   -5.0373    1.0000 </r>
       <r>   -4.5958    1.0000 </r>
       <r>   -4.5844    1.0000 </r>
       <r>   -4.5555    1.0000 </r>
       <r>   -4.5024    1.0000 </r>
       <r>   -4.4347    1.0000 </r>
       <r>   -4.3741    1.0000 </r>
       <r>   -4.1905    1.0000 </r>
       <r>   -3.7221    1.0000 </r>
       <r>   -3.6811    1.0000 </r>
       <r>   -3.6267    1.0000 </r>
       <r>   -3.5245    1.0000 </r>
       <r>   -3.3817    1.0000 </r>
       <r>   -3.2496    1.0000 </r>
       <r>   -2.9317    1.0000 </r>
       <r>   -2.5739    1.0000 </r>
       <r>   -2.5198    1.0000 </r>
       <r>   -2.4826    1.0000 </r>
       <r>   -2.4016    1.0000 </r>
       <r>   -2.1206    1.0000 </r>
       <r>   -1.8447    1.0000 </r>
       <r>   -1.5454    1.0000 </r>
       <r>   -1.1766    1.0000 </r>
       <r>   -1.0756    1.0000 </r>
       <r>   -1.0180    1.0000 </r>
       <r>   -0.9833    1.0000 </r>
       <r>   -0.9598    1.0000 </r>
       <r>   -0.9387    1.0000 </r>
       <r>   -0.9314    1.0000 </r>
       <r>   -0.9116    1.0000 </r>
       <r>   -0.8863    1.0000 </r>
       <r>   -0.8573    1.0000 </r>
       <r>   -0.7475    1.0000 </r>
       <r>   -0.6142    1.0000 </r>
       <r>   -0.5799    1.0000 </r>
       <r>   -0.5156    0.7766 </r>
       <r>   -0.3453    0.0000 </r>
       <r>   -0.3409    0.0000 </r>
       <r>   -0.2414    0.0000 </r>
       <r>   -0.1643    0.0000 </r>
       <r>   -0.1387    0.0000 </r>
       <r>    0.1554    0.0000 </r>
       <r>    0.2318    0.0000 </r>
       <r>    0.2531    0.0000 </r>
       <r>    0.3072    0.0000 </r>
       <r>    0.4267    0.0000 </r>
       <r>    0.4390    0.0000 </r>
       <r>    0.4570    0.0000 </r>
       <r>    0.5509    0.0000 </r>
       <r>    0.6286    0.0000 </r>
       <r>    0.6789    0.0000 </r>
       <r>    0.9307    0.0000 </r>
       <r>    1.1187    0.0000 </r>
       <r>    1.1374    0.0000 </r>
       <r>    1.1415    0.0000 </r>
       <r>    1.1659    0.0000 </r>
       <r>    1.1711    0.0000 </r>
       <r>    1.2064    0.0000 </r>
       <r>    1.2478    0.0000 </r>
       <r>    1.2982    0.0000 </r>
       <r>    1.3597    0.0000 </r>
       <r>    1.5065    0.0000 </r>
       <r>    1.5510    0.0000 </r>
       <r>    1.6385    0.0000 </r>
       <r>    1.7040    0.0000 </r>
       <r>    1.7223    0.0000 </r>
       <r>    1.7803    0.0000 </r>
       <r>    1.8042    0.0000 </r>
       <r>    1.9186    0.0000 </r>
      </set>
      <set comment="kpoint 2">
       <r>  -24.1656    1.0000 </r>
       <r>  -23.8174    1.0000 </r>
       <r>  -23.7258    1.0000 </r>
       <r>  -23.5187    1.0000 </r>
       <r>  -23.2886    1.0000 </r>
       <r>  -22.1300    1.0000 </r>
       <r>  -12.1327    1.0000 </r>
       <r>  -11.8463    1.0000 </r>
       <r>  -11.7215    1.0000 </r>
       <r>  -11.2364    1.0000 </r>
       <r>  -10.9796    1.0000 </r>
       <r>   -9.7828    1.0000 </r>
       <r>   -8.9554    1.0000 </r>
       <r>   -8.6421    1.0000 </r>
       <r>   -8.5871    1.0000 </r>
       <r>   -8.0999    1.0000 </r>
       <r>   -7.8576    1.0000 </r>
       <r>   -7.1188    1.0000 </r>
       <r>   -7.0806    1.0000 </r>
       <r>   -6.9148    1.0000 </r>
       <r>   -6.5275    1.0000 </r>
       <r>   -6.4369    1.0000 </r>
       <r>   -6.3794    1.0000 </r>
       <r>   -6.2902    1.0000 </r>
       <r>   -6.2366    1.0000 </r>
       <r>   -6.0325    1.0000 </r>
       <r>   -5.9754    1.0000 </r>
       <r>   -5.8207    1.0000 </r>
       <r>   -5.6496    1.0000 </r>
       <r>   -5.5683    1.0000 </r>
       <r>   -5.5502    1.0000 </r>
       <r>   -5.3039    1.0000 </r>
       <r>   -4.9695    1.0000 </r>
       <r>   -4.9034    1.0000 </r>
       <r>   -4.6594    1.0000 </r>
       <r>   -4.2893    1.0000 </r>
       <r>   -4.1484    1.0000 </r>
       <r>   -4.1329    1.0000 </r>
       <r>   -4.0432    1.0000 </r>
       <r>   -3.8723    1.0000 </r>
       <r>   -3.5908    1.0000 </r>
       <r>   -3.5356    1.0000 </r>
       <r>   -3.4390    1.0000 </r>
       <r>   -3.3698    1.0000 </r>
       <r>   -2.9414    1.0000 </r>
       <r>   -2.9213    1.0000 </r>
       <r>   -2.8456    1.0000 </r>
       <r>   -2.7707    1.0000 </r>
       <r>   -2.7326    1.0000 </r>
       <r>   -2.7123    1.0000 </r>
       <r>   -2.5936    1.0000 </r>
       <r>   -2.3590    1.0000 </r>
       <r>   -2.2043    1.0000 </r>
       <r>   -2.1380    1.0000 </r>
       <r>   -2.0301    1.0000 </r>
       <r>   -1.8804    1.0000 </r>
       <r>   -1.5813    1.0000 </r>
       <r>   -1.5301    1.0000 </r>
       <r>   -1.4881    1.0000 </r>
       <r>   -1.4145    1.0000 </r>
       <r>   -1.3815    1.0000 </r>
       <r>   -1.3319    1.0000 </r>
       <r>   -1.2761    1.0000 </r>
       <r>   -1.0147    1.0000 </r>
       <r>   -0.8662    1.0000 </r>
       <r>   -0.7402    1.0000 </r>
       <r>   -0.6961    1.0000 </r>
       <r>   -0.6349    1.0000 </r>
       <r>   -0.5126    0.8636 </r>
       <r>   -0.4384    0.0098 </r>
       <r>   -0.3825   -0.0166 </r>
       <r>   -0.2528    0.0000 </r>
       <r>   -0.1198    0.0000 </r>
       <r>    0.0075    0.0000 </r>
       <r>    0.0512    0.0000 </r>
       <r>    0.1385    0.0000 </r>
       <r>    0.1980    0.0000 </r>
       <r>    0.2525    0.0000 </r>
       <r>    0.3381    0.0000 </r>
       <r>    0.4122    0.0000 </r>
       <r>    0.5363    0.0000 </r>
       <r>    0.6343    0.0000 </r>
       <r>    0.6795    0.0000 </r>
       <r>    0.7064    0.0000 </r>
       <r>    0.7830    0.0000 </r>
       <r>    0.8355    0.0000 </r>
       <r>    0.8789    0.0000 </r>
       <r>    0.9886    0.0000 </r>
       <r>    1.0611    0.0000 </r>
       <r>    0.9941    0.0000 </r>
       <r>    1.1562    0.0000 </r>
       <r>    1.2154    0.0000 </r>
       <r>    1.3136    0.0000 </r>
       <r>    1.3781    0.0000 </r>
       <r>    1.4671    0.0000 </r>
       <r>    1.5042    0.0000 </r>
       <r>    1.5296    0.0000 </r>
       <r>    1.5778    0.0000 </r>
       <r>    1.6654    0.0000 </r>
       <r>    1.7374    0.0000 </r>
       <r>    1.8221    0.0000 </r>
       <r>    2.2725    0.0000 </r>
      </set>
      <set comment="kpoint 3">
       <r>  -24.1670    1.0000 </r>
       <r>  -23.8126    1.0000 </r>
       <r>  -23.7241    1.0000 </r>
       <r>  -23.5280    1.0000 </r>
       <r>  -23.2846    1.0000 </r>
       <r>  -22.1300    1.0000 </r>
       <r>  -12.1328    1.0000 </r>
       <r>  -11.8492    1.0000 </r>
       <r>  -11.7194    1.0000 </r>
       <r>  -11.2360    1.0000 </r>
       <r>  -10.9785    1.0000 </r>
       <r>   -9.7828    1.0000 </r>
       <r>   -8.9561    1.0000 </r>
       <r>   -8.6406    1.0000 </r>
       <r>   -8.5834    1.0000 </r>
       <r>   -8.1159    1.0000 </r>
       <r>   -7.8503    1.0000 </r>
       <r>   -7.1031    1.0000 </r>
       <r>   -7.0593    1.0000 </r>
       <r>   -6.9039    1.0000 </r>
       <r>   -6.5690    1.0000 </r>
       <r>   -6.4643    1.0000 </r>
       <r>   -6.3720    1.0000 </r>
       <r>   -6.3031    1.0000 </r>
       <r>   -6.2482    1.0000 </r>
       <r>   -6.0320    1.0000 </r>
       <r>   -5.9843    1.0000 </r>
       <r>   -5.8245    1.0000 </r>
       <r>   -5.6441    1.0000 </r>
       <r>   -5.5739    1.0000 </r>
       <r>   -5.5443    1.0000 </r>
       <r>   -5.2583    1.0000 </r>
       <r>   -4.9887    1.0000 </r>
       <r>   -4.8743    1.0000 </r>
       <r>   -4.6539    1.0000 </r>
       <r>   -4.2204    1.0000 </r>
       <r>   -4.1777    1.0000 </r>
       <r>   -4.1352    1.0000 </r>
       <r>   -4.0087    1.0000 </r>
       <r>   -3.9160    1.0000 </r>
       <r>   -3.6157    1.0000 </r>
       <r>   -3.5081    1.0000 </r>
       <r>   -3.4424    1.0000 </r>
       <r>   -3.3524    1.0000 </r>
       <r>   -2.9590    1.0000 </r>
       <r>   -2.9017    1.0000 </r>
       <r>   -2.8510    1.0000 </r>
       <r>   -2.7942    1.0000 </r>
       <r>   -2.7681    1.0000 </r>
       <r>   -2.7200    1.0000 </r>
       <r>   -2.5354    1.0000 </r>
       <r>   -2.4308    1.0000 </r>
       <r>   -2.2189    1.0000 </r>
       <r>   -2.0908    1.0000 </r>
       <r>   -2.0638    1.0000 </r>
       <r>   -1.8390    1.0000 </r>
       <r>   -1.6517    1.0000 </r>
       <r>   -1.5218    1.0000 </r>
       <r>   -1.5034    1.0000 </r>
       <r>   -1.4230    1.0000 </r>
       <r>   -1.3927    1.0000 </r>
       <r>   -1.3362    1.0000 </r>
       <r>   -1.2338    1.0000 </r>
       <r>   -1.0232    1.0000 </r>
       <r>   -0.8487    1.0000 </r>
       <r>   -0.7229    1.0000 </r>
       <r>   -0.6897    1.0000 </r>
       <r>   -0.6267    1.0000 </r>
       <r>   -0.4982    0.4345 </r>
       <r>   -0.4703    0.0989 </r>
       <r>   -0.3860   -0.0165 </r>
       <r>   -0.2563    0.0000 </r>
       <r>   -0.2019    0.0000 </r>
       <r>    0.0361    0.0000 </r>
       <r>    0.0711    0.0000 </r>
       <r>    0.1494    0.0000 </r>
       <r>    0.1700    0.0000 </r>
       <r>    0.2840    0.0000 </r>
       <r>    0.3272    0.0000 </r>
       <r>    0.4406    0.0000 </r>
       <r>    0.5808    0.0000 </r>
       <r>    0.6317    0.0000 </r>
       <r>    0.6568    0.0000 </r>
       <r>    0.7351    0.0000 </r>
       <r>    0.7692    0.0000 </r>
       <r>    0.8386    0.0000 </r>
       <r>    0.8775    0.0000 </r>
       <r>    0.9785    0.0000 </r>
       <r>    1.1133    0.0000 </r>
       <r>    1.1453    0.0000 </r>
       <r>    1.2318    0.0000 </r>
       <r>    1.3128    0.0000 </r>
       <r>    1.4263    0.0000 </r>
       <r>    1.4586    0.0000 </r>
       <r>    1.4698    0.0000 </r>
       <r>    1.5057    0.0000 </r>
       <r>    1.5744    0.0000 </r>
       <r>    1.6789    0.0000 </r>
       <r>    1.7136    0.0000 </r>
       <r>    1.7593    0.0000 </r>
       <r>    1.8349    0.0000 </r>
       <r>    1.9762    0.0000 </r>
      </set>
      <set comment="kpoint 4">
       <r>  -24.1656    1.0000 </r>
       <r>  -23.8171    1.0000 </r>
       <r>  -23.7265    1.0000 </r>
       <r>  -23.5183    1.0000 </r>
       <r>  -23.2887    1.0000 </r>
       <r>  -22.1300    1.0000 </r>
       <r>  -12.1327    1.0000 </r>
       <r>  -11.8457    1.0000 </r>
       <r>  -11.7222    1.0000 </r>
       <r>  -11.2361    1.0000 </r>
       <r>  -10.9798    1.0000 </r>
       <r>   -9.7824    1.0000 </r>
       <r>   -8.9550    1.0000 </r>
       <r>   -8.6432    1.0000 </r>
       <r>   -8.5870    1.0000 </r>
       <r>   -8.0988    1.0000 </r>
       <r>   -7.8599    1.0000 </r>
       <r>   -7.0806    1.0000 </r>
       <r>   -7.0325    1.0000 </r>
       <r>   -6.5769    1.0000 </r>
       <r>   -6.5380    1.0000 </r>
       <r>   -6.5055    1.0000 </r>
       <r>   -6.4811    1.0000 </r>
       <r>   -6.3754    1.0000 </r>
       <r>   -6.3124    1.0000 </r>
       <r>   -6.1288    1.0000 </r>
       <r>   -6.0331    1.0000 </r>
       <r>   -5.9143    1.0000 </r>
       <r>   -5.8759    1.0000 </r>
       <r>   -5.8277    1.0000 </r>
       <r>   -5.6253    1.0000 </r>
       <r>   -5.0528    1.0000 </r>
       <r>   -4.9869    1.0000 </r>
       <r>   -4.6374    1.0000 </r>
       <r>   -4.3887    1.0000 </r>
       <r>   -4.3777    1.0000 </r>
       <r>   -4.3481    1.0000 </r>
       <r>   -3.9127    1.0000 </r>
       <r>   -3.8859    1.0000 </r>
       <r>   -3.8285    1.0000 </r>
       <r>   -3.7881    1.0000 </r>
       <r>   -3.6751    1.0000 </r>
       <r>   -3.3487    1.0000 </r>
       <r>   -2.9506    1.0000 </r>
       <r>   -2.8809    1.0000 </r>
       <r>   -2.7271    1.0000 </r>
       <r>   -2.4066    1.0000 </r>
       <r>   -2.3669    1.0000 </r>
       <r>   -2.3148    1.0000 </r>
       <r>   -2.3025    1.0000 </r>
       <r>   -2.2979    1.0000 </r>
       <r>   -2.2720    1.0000 </r>
       <r>   -2.2628    1.0000 </r>
       <r>   -2.2513    1.0000 </r>
[...]
       <r>   -22.2099     0.0000    10.0000 </r>
       <r>   -22.1084     0.0000    12.0000 </r>
       <r>   -22.0069     0.0000    12.0000 </r>
       <r>   -21.9055     0.0000    12.0000 </r>
       <r>   -21.8040     0.0000    12.0000 </r>
       <r>   -21.7026     0.0000    12.0000 </r>
       <r>   -21.6011     0.0000    12.0000 </r>
       <r>   -21.4996     0.0000    12.0000 </r>
       <r>   -21.3982     0.0000    12.0000 </r>
       <r>   -21.2967     0.0000    12.0000 </r>
       <r>   -21.1952     0.0000    12.0000 </r>
       <r>   -21.0938     0.0000    12.0000 </r>
       <r>   -20.9923     0.0000    12.0000 </r>
       <r>   -20.8908     0.0000    12.0000 </r>
       <r>   -20.7894     0.0000    12.0000 </r>
       <r>   -20.6879     0.0000    12.0000 </r>
       <r>   -20.5864     0.0000    12.0000 </r>
       <r>   -20.4850     0.0000    12.0000 </r>
       <r>   -20.3835     0.0000    12.0000 </r>
       <r>   -20.2820     0.0000    12.0000 </r>
       <r>   -20.1806     0.0000    12.0000 </r>
       <r>   -20.0791     0.0000    12.0000 </r>
       <r>   -19.9776     0.0000    12.0000 </r>
       <r>   -19.8762     0.0000    12.0000 </r>
       <r>   -19.7747     0.0000    12.0000 </r>
       <r>   -19.6733     0.0000    12.0000 </r>
       <r>   -19.5718     0.0000    12.0000 </r>
       <r>   -19.4703     0.0000    12.0000 </r>
       <r>   -19.3689     0.0000    12.0000 </r>
       <r>   -19.2674     0.0000    12.0000 </r>
       <r>   -19.1659     0.0000    12.0000 </r>
       <r>   -19.0645     0.0000    12.0000 </r>
       <r>   -18.9630     0.0000    12.0000 </r>
       <r>   -18.8615     0.0000    12.0000 </r>
       <r>   -18.7601     0.0000    12.0000 </r>
       <r>   -18.6586     0.0000    12.0000 </r>
       <r>   -18.5571     0.0000    12.0000 </r>
       <r>   -18.4557     0.0000    12.0000 </r>
       <r>   -18.3542     0.0000    12.0000 </r>
       <r>   -18.2527     0.0000    12.0000 </r>
       <r>   -18.1513     0.0000    12.0000 </r>
       <r>   -18.0498     0.0000    12.0000 </r>
       <r>   -17.9483     0.0000    12.0000 </r>
       <r>   -17.8469     0.0000    12.0000 </r>
       <r>   -17.7454     0.0000    12.0000 </r>
       <r>   -17.6439     0.0000    12.0000 </r>
       <r>   -17.5425     0.0000    12.0000 </r>
       <r>   -17.4410     0.0000    12.0000 </r>
       <r>   -17.3396     0.0000    12.0000 </r>
       <r>   -17.2381     0.0000    12.0000 </r>
       <r>   -17.1366     0.0000    12.0000 </r>
       <r>   -17.0352     0.0000    12.0000 </r>
       <r>   -16.9337     0.0000    12.0000 </r>
       <r>   -16.8322     0.0000    12.0000 </r>
       <r>   -16.7308     0.0000    12.0000 </r>
       <r>   -16.6293     0.0000    12.0000 </r>
       <r>   -16.5278     0.0000    12.0000 </r>
       <r>   -16.4264     0.0000    12.0000 </r>
       <r>   -16.3249     0.0000    12.0000 </r>
       <r>   -16.2234     0.0000    12.0000 </r>
       <r>   -16.1220     0.0000    12.0000 </r>
       <r>   -16.0205     0.0000    12.0000 </r>
       <r>   -15.9190     0.0000    12.0000 </r>
       <r>   -15.8176     0.0000    12.0000 </r>
       <r>   -15.7161     0.0000    12.0000 </r>
       <r>   -15.6146     0.0000    12.0000 </r>
       <r>   -15.5132     0.0000    12.0000 </r>
       <r>   -15.4117     0.0000    12.0000 </r>
       <r>   -15.3103     0.0000    12.0000 </r>
       <r>   -15.2088     0.0000    12.0000 </r>
       <r>   -15.1073     0.0000    12.0000 </r>
       <r>   -15.0059     0.0000    12.0000 </r>
       <r>   -14.9044     0.0000    12.0000 </r>
       <r>   -14.8029     0.0000    12.0000 </r>
       <r>   -14.7015     0.0000    12.0000 </r>
       <r>   -14.6000     0.0000    12.0000 </r>
       <r>   -14.4985     0.0000    12.0000 </r>
       <r>   -14.3971     0.0000    12.0000 </r>
       <r>   -14.2956     0.0000    12.0000 </r>
       <r>   -14.1941     0.0000    12.0000 </r>
       <r>   -14.0927     0.0000    12.0000 </r>
       <r>   -13.9912     0.0000    12.0000 </r>
       <r>   -13.8897     0.0000    12.0000 </r>
       <r>   -13.7883     0.0000    12.0000 </r>
       <r>   -13.6868     0.0000    12.0000 </r>
       <r>   -13.5853     0.0000    12.0000 </r>
       <r>   -13.4839     0.0000    12.0000 </r>
       <r>   -13.3824     0.0000    12.0000 </r>
       <r>   -13.2810     0.0000    12.0000 </r>
       <r>   -13.1795     0.0000    12.0000 </r>
       <r>   -13.0780     0.0000    12.0000 </r>
       <r>   -12.9766     0.0000    12.0000 </r>
       <r>   -12.8751     0.0000    12.0000 </r>
       <r>   -12.7736     0.0000    12.0000 </r>
       <r>   -12.6722     0.0000    12.0000 </r>
       <r>   -12.5707     0.0000    12.0000 </r>
       <r>   -12.4692     0.0000    12.0000 </r>
       <r>   -12.3678     0.0000    12.0000 </r>
       <r>   -12.2663     0.0000    12.0000 </r>
       <r>   -12.1648     0.0000    12.0000 </r>
       <r>   -12.0634     0.0000    14.0000 </r>
       <r>   -11.9619     0.0000    14.0000 </r>
       <r>   -11.8604     0.0000    14.0000 </r>
       <r>   -11.7590     0.0000    16.0000 </r>
       <r>   -11.6575     0.0000    18.0000 </r>
       <r>   -11.5560     0.0000    18.0000 </r>
       <r>   -11.4546     0.0000    18.0000 </r>
       <r>   -11.3531     0.0000    18.0000 </r>
       <r>   -11.2517     0.0000    18.0000 </r>
       <r>   -11.1502     0.0000    20.0000 </r>
       <r>   -11.0487     0.0000    20.0000 </r>
       <r>   -10.9473     0.0000    22.0000 </r>
       <r>   -10.8458     0.0000    22.0000 </r>
       <r>   -10.7443     0.0000    22.0000 </r>
       <r>   -10.6429     0.0000    22.0000 </r>
       <r>   -10.5414     0.0000    22.0000 </r>
       <r>   -10.4399     0.0000    22.0000 </r>
       <r>   -10.3385     0.0000    22.0000 </r>
       <r>   -10.2370     0.0000    22.0000 </r>
       <r>   -10.1355     0.0000    22.0000 </r>
       <r>   -10.0341     0.0000    22.0000 </r>
       <r>    -9.9326     0.0000    22.0000 </r>
       <r>    -9.8311     0.0000    22.0000 </r>
       <r>    -9.7297     0.0000    24.0000 </r>
       <r>    -9.6282     0.0000    24.0000 </r>
       <r>    -9.5267     0.0000    24.0000 </r>
       <r>    -9.4253     0.0000    24.0000 </r>
       <r>    -9.3238     0.0000    24.0000 </r>
       <r>    -9.2224     0.0000    24.0000 </r>
       <r>    -9.1209     0.0000    24.0000 </r>
       <r>    -9.0194     0.0000    24.0000 </r>
       <r>    -8.9180     0.0000    26.0000 </r>
       <r>    -8.8165     0.0000    26.0000 </r>
       <r>    -8.7150     0.0000    26.0000 </r>
       <r>    -8.6136     0.0000    28.0000 </r>
       <r>    -8.5121     0.0000    30.0000 </r>
       <r>    -8.4106     0.0000    30.0000 </r>
       <r>    -8.3092     0.0000    30.0000 </r>
       <r>    -8.2077     0.0000    30.0000 </r>
       <r>    -8.1062    78.4137    30.9129 </r>
       <r>    -8.0048     0.0000    32.0000 </r>
       <r>    -7.9033     0.0000    32.0000 </r>
       <r>    -7.8018     0.0000    34.0000 </r>
       <r>    -7.7004     0.0000    34.0000 </r>
       <r>    -7.5989     0.0000    34.0000 </r>
       <r>    -7.4974     0.0000    34.0000 </r>
       <r>    -7.3960     0.0000    34.0000 </r>
       <r>    -7.2945     0.0000    34.0000 </r>
       <r>    -7.1931     4.2740    34.2158 </r>
       <r>    -7.0916    28.4489    35.8443 </r>
       <r>    -6.9901     0.0000    38.0000 </r>
       <r>    -6.8887     7.4055    38.8456 </r>
       <r>    -6.7872     4.9955    39.4747 </r>
       <r>    -6.6857     2.5854    39.8593 </r>
       <r>    -6.5843     7.5581    40.2722 </r>
       <r>    -6.4828    33.7876    42.3359 </r>
       <r>    -6.3813    20.3068    45.0126 </r>
       <r>    -6.2799    43.8540    48.3387 </r>
       <r>    -6.1784     4.3928    49.7398 </r>
       <r>    -6.0769    15.1609    50.3711 </r>
       <r>    -5.9755    28.8007    53.3246 </r>
       <r>    -5.8740    15.5173    54.1866 </r>
       <r>    -5.7725    10.7413    55.8398 </r>
       <r>    -5.6711    18.9161    57.3444 </r>
       <r>    -5.5696    32.9364    59.4905 </r>
       <r>    -5.4681     6.2935    60.8479 </r>
       <r>    -5.3667     4.5484    61.3979 </r>
       <r>    -5.2652    15.7145    62.0734 </r>
       <r>    -5.1638     9.4864    63.5397 </r>
       <r>    -5.0623     2.0197    64.0037 </r>
       <r>    -4.9608     4.8486    66.1854 </r>
       <r>    -4.8594     9.2180    66.9770 </r>
       <r>    -4.7579     5.0041    67.6985 </r>
       <r>    -4.6564     9.0261    68.0070 </r>
       <r>    -4.5550     6.7303    69.4783 </r>
       <r>    -4.4535     5.5228    70.0875 </r>
       <r>    -4.3520    12.8302    70.7432 </r>
       <r>    -4.2506    21.3060    73.1338 </r>
       <r>    -4.1491     9.7969    75.1025 </r>
       <r>    -4.0476    16.6554    76.5566 </r>
       <r>    -3.9462    12.2192    78.3748 </r>
       <r>    -3.8447    29.2669    80.0051 </r>
       <r>    -3.7432     5.2509    80.4658 </r>
       <r>    -3.6418    20.6080    81.6013 </r>
       <r>    -3.5403    25.0824    83.7944 </r>
       <r>    -3.4388    24.2026    85.0555 </r>
       <r>    -3.3374     7.0453    86.9123 </r>
       <r>    -3.2359     6.6125    87.6002 </r>
       <r>    -3.1345     6.9091    88.2862 </r>
       <r>    -3.0330     7.2056    89.0022 </r>
       <r>    -2.9315    35.8297    90.2758 </r>
       <r>    -2.8301    19.3464    92.6784 </r>
       <r>    -2.7286    22.9387    94.5155 </r>
       <r>    -2.6271    22.8218    97.3448 </r>
       <r>    -2.5257    26.6037    99.9166 </r>
       <r>    -2.4242    15.1271   101.5189 </r>
       <r>    -2.3227    14.0902   103.6615 </r>
       <r>    -2.2213    45.1042   104.9076 </r>
       <r>    -2.1198     8.1880   107.2537 </r>
       <r>    -2.0183    15.1117   108.9246 </r>
       <r>    -1.9169     3.3729   109.5610 </r>
       <r>    -1.8154     4.5744   111.2343 </r>
       <r>    -1.7139    15.0466   112.1669 </r>
       <r>    -1.6125    28.0038   114.4206 </r>
       <r>    -1.5110    29.1493   117.4413 </r>
       <r>    -1.4095    27.5110   120.3666 </r>
       <r>    -1.3081    22.3217   122.8448 </r>
       <r>    -1.2066    15.0513   124.7923 </r>
       <r>    -1.1052    14.4833   126.2659 </r>
       <r>    -1.0037    18.3518   127.8139 </r>
       <r>    -0.9022    17.1914   129.5750 </r>
       <r>    -0.8008    16.0525   131.8086 </r>
       <r>    -0.6993    17.0096   134.3154 </r>
       <r>    -0.5978    16.7662   136.5407 </r>
       <r>    -0.4964    15.9009   138.6489 </r>
       <r>    -0.3949    28.7079   141.1279 </r>
       <r>    -0.2934    15.4921   143.2058 </r>
       <r>    -0.1920    15.4682   145.3698 </r>
       <r>    -0.0905    13.5584   147.0521 </r>
       <r>     0.0110    14.4904   148.8212 </r>
       <r>     0.1124    21.0441   149.9606 </r>
       <r>     0.2139    44.4256   153.1396 </r>
       <r>     0.3154     0.0000   156.0000 </r>
       <r>     0.4168    76.7023   158.3230 </r>
       <r>     0.5183    38.1834   160.6788 </r>
       <r>     0.6198    47.2872   163.2199 </r>
       <r>     0.7212    31.7743   166.8924 </r>
       <r>     0.8227    18.1945   169.0384 </r>
       <r>     0.9241    29.8517   171.9991 </r>
       <r>     1.0256    27.7104   174.5169 </r>
       <r>     1.1271    28.6953   177.5019 </r>
       <r>     1.2285    34.2055   180.2795 </r>
       <r>     1.3300    22.2821   182.8760 </r>
       <r>     1.4315    25.6146   185.4402 </r>
       <r>     1.5329    39.4426   188.9838 </r>
       <r>     1.6344    34.6785   192.8633 </r>
       <r>     1.7359    23.8383   196.8072 </r>
       <r>     1.8373    24.5686   200.5903 </r>
       <r>     1.9388     5.5512   201.9656 </r>
       <r>     2.0403     8.1933   202.5938 </r>
       <r>     2.1417     5.7521   203.3013 </r>
       <r>     2.2432     5.8868   203.7926 </r>
       <r>     2.3447     0.0000   204.0000 </r>
       <r>     2.4461     0.0000   204.0000 </r>
       <r>     2.5476     0.0000   204.0000 </r>
       <r>     2.6491     0.0000   204.0000 </r>
       <r>     2.7505     0.0000   204.0000 </r>
       <r>     2.8520     0.0000   204.0000 </r>
       <r>     2.9535     0.0000   204.0000 </r>
       <r>     3.0549     0.0000   204.0000 </r>
       <r>     3.1564     0.0000   204.0000 </r>
       <r>     3.2578     0.0000   204.0000 </r>
       <r>     3.3593     0.0000   204.0000 </r>
       <r>     3.4608     0.0000   204.0000 </r>
       <r>     3.5622     0.0000   204.0000 </r>
       <r>     3.6637     0.0000   204.0000 </r>
       <r>     3.7652     0.0000   204.0000 </r>
       <r>     3.8666     0.0000   204.0000 </r>
       <r>     3.9681     0.0000   204.0000 </r>
       <r>     4.0696     0.0000   204.0000 </r>
       <r>     4.1710     0.0000   204.0000 </r>
       <r>     4.2725     0.0000   204.0000 </r>
      </set>
     </set>
    </array>
   </total>
  </dos>
 </calculation>
 <structure name="finalpos" >
  <crystal>
   <varray name="basis" >
    <v>       9.55575275       0.00000000       0.00000000 </v>
    <v>      -4.77787638       8.27552464       0.00000000 </v>
    <v>       0.00000000       0.00000000      32.62509537 </v>
   </varray>
   <i name="volume">   2579.95558872 </i>
   <varray name="rec_basis" >
    <v>       0.10464900       0.06041913       0.00000000 </v>
    <v>       0.00000000       0.12083826       0.00000000 </v>
    <v>       0.00000000       0.00000000       0.03065125 </v>
   </varray>
  </crystal>
  <varray name="positions" >
   <v>       0.00000000       0.00000000       0.00000000 </v>
   <v>       0.99979690       0.00188955       0.15822423 </v>
   <v>       0.00236649       0.01388613       0.32947997 </v>
   <v>       0.00000001       0.33333336       0.00000000 </v>
   <v>       0.00027174       0.33629812       0.15802695 </v>
   <v>       0.99590186       0.33745410       0.31237572 </v>
   <v>       0.00000002       0.66666672       0.00000000 </v>
   <v>       0.00126483       0.67020499       0.15742387 </v>
   <v>       0.00028412       0.67342648       0.31464653 </v>
   <v>       0.33333334       0.00000000       0.00000000 </v>
   <v>       0.33329116       0.00170185       0.15756248 </v>
   <v>       0.32879251       0.00725215       0.30995698 </v>
   <v>       0.33333335       0.33333336       0.00000000 </v>
   <v>       0.33200743       0.33339908       0.15714463 </v>
   <v>       0.32395567       0.33354283       0.31319935 </v>
   <v>       0.33333336       0.66666672       0.00000000 </v>
   <v>       0.33263550       0.67059935       0.15802066 </v>
   <v>       0.32247293       0.67392519       0.33039672 </v>
   <v>       0.66666668       0.00000000       0.00000000 </v>
   <v>       0.66536681       0.00131900       0.15795305 </v>
   <v>       0.66898190       0.00862868       0.31434550 </v>
   <v>       0.66666668       0.33333336       0.00000000 </v>
   <v>       0.66629465       0.33512388       0.15833221 </v>
   <v>       0.65463597       0.32396458       0.33274368 </v>
   <v>       0.66666670       0.66666672       0.00000000 </v>
   <v>       0.66826032       0.67014630       0.15698626 </v>
   <v>       0.66113635       0.67796110       0.31362687 </v>
   <v>       0.11111113       0.22222222       0.07982145 </v>
   <v>       0.10936967       0.22414755       0.23637652 </v>
   <v>       0.11111114       0.55555561       0.07982145 </v>
   <v>       0.11433205       0.56215838       0.23759210 </v>
   <v>       0.11111116       0.88888894       0.07982145 </v>
   <v>       0.10653593       0.89219439       0.23639687 </v>
   <v>       0.44444450       0.22222222       0.07982145 </v>
   <v>       0.44961918       0.23330187       0.23686694 </v>
   <v>       0.44444450       0.55555561       0.07982145 </v>
   <v>       0.44535012       0.55922480       0.23359385 </v>
   <v>       0.44444451       0.88888894       0.07982145 </v>
   <v>       0.44364126       0.88738510       0.23751727 </v>
   <v>       0.77777779       0.22222222       0.07982145 </v>
   <v>       0.77568243       0.22828686       0.23650233 </v>
   <v>       0.77777781       0.55555561       0.07982145 </v>
   <v>       0.77759573       0.55912383       0.23500646 </v>
   <v>       0.77777784       0.88888894       0.07982145 </v>
   <v>       0.78058032       0.89346851       0.23787987 </v>
   <v>       0.99358234       0.99173979       0.39597746 </v>
   <v>       0.27870769       0.95487621       0.41233810 </v>
   <v>       0.87495155       0.21812735       0.41472788 </v>
   <v>       0.61631060       0.26967494       0.40060347 </v>
   <v>       0.77408093       0.57273561       0.34533282 </v>
   <v>       0.35142364       0.70716712       0.39587116 </v>
   <v>       0.95999676       0.06045582       0.41058582 </v>
   <v>       0.08815519       0.99884882       0.41008959 </v>
   <v>       0.38285282       0.05642508       0.40979256 </v>
   <v>       0.24115847       0.92931929       0.38315920 </v>
   <v>       0.97350149       0.32353822       0.41801013 </v>
   <v>       0.86622955       0.20395231       0.38393512 </v>
   <v>       0.61250691       0.35144720       0.41789888 </v>
   <v>       0.70441610       0.25266242       0.41166712 </v>
   <v>       0.79284512       0.60595394       0.37424029 </v>
   <v>       0.44283313       0.55346246       0.33636771 </v>
   <v>       0.33056918       0.79264455       0.40661685 </v>
   <v>       0.46272673       0.73997824       0.40353514 </v>
  </varray>
  <varray name="selective"  type="logical" >
   <v type="logical" >  F  F  F </v>
   <v type="logical" >  T  T  T </v>
   <v type="logical" >  T  T  T </v>
   <v type="logical" >  F  F  F </v>
   <v type="logical" >  T  T  T </v>
   <v type="logical" >  T  T  T </v>
   <v type="logical" >  F  F  F </v>
   <v type="logical" >  T  T  T </v>
   <v type="logical" >  T  T  T </v>
   <v type="logical" >  F  F  F </v>
   <v type="logical" >  T  T  T </v>
   <v type="logical" >  T  T  T </v>
   <v type="logical" >  F  F  F </v>
   <v type="logical" >  T  T  T </v>
   <v type="logical" >  T  T  T </v>
   <v type="logical" >  F  F  F </v>
   <v type="logical" >  T  T  T </v>
   <v type="logical" >  T  T  T </v>
   <v type="logical" >  F  F  F </v>
   <v type="logical" >  T  T  T </v>
   <v type="logical" >  T  T  T </v>
   <v type="logical" >  F  F  F </v>
   <v type="logical" >  T  T  T </v>
   <v type="logical" >  T  T  T </v>
   <v type="logical" >  F  F  F </v>
   <v type="logical" >  T  T  T </v>
   <v type="logical" >  T  T  T </v>
   <v type="logical" >  F  F  F </v>
   <v type="logical" >  T  T  T </v>
   <v type="logical" >  F  F  F </v>
   <v type="logical" >  T  T  T </v>
   <v type="logical" >  F  F  F </v>
   <v type="logical" >  T  T  T </v>
   <v type="logical" >  F  F  F </v>
   <v type="logical" >  T  T  T </v>
   <v type="logical" >  F  F  F </v>
   <v type="logical" >  T  T  T </v>
   <v type="logical" >  F  F  F </v>
   <v type="logical" >  T  T  T </v>
   <v type="logical" >  F  F  F </v>
   <v type="logical" >  T  T  T </v>
   <v type="logical" >  F  F  F </v>
   <v type="logical" >  T  T  T </v>
   <v type="logical" >  F  F  F </v>
   <v type="logical" >  T  T  T </v>
   <v type="logical" >  T  T  T </v>
   <v type="logical" >  T  T  T </v>
   <v type="logical" >  T  T  T </v>
   <v type="logical" >  T  T  T </v>
   <v type="logical" >  T  T  T </v>
   <v type="logical" >  T  T  T </v>
   <v type="logical" >  T  T  T </v>
   <v type="logical" >  T  T  T </v>
   <v type="logical" >  T  T  T </v>
   <v type="logical" >  T  T  T </v>
   <v type="logical" >  T  T  T </v>
   <v type="logical" >  T  T  T </v>
   <v type="logical" >  T  T  T </v>
   <v type="logical" >  T  T  T </v>
   <v type="logical" >  T  T  T </v>
   <v type="logical" >  T  T  T </v>
   <v type="logical" >  T  T  T </v>
   <v type="logical" >  T  T  T </v>
  </varray>
  <nose>
   <v>      -3.00000000       0.00000000       0.00010000       0.00010000 </v>
  </nose>
 </structure>
</modeling>
