Mg_slab_in_a_box                        
           1
     9.555753    0.000000    0.000000
    -4.777876    8.275525    0.000000
     0.000000    0.000000   32.625095
   Mg   O    H 
  45   6  12
Direct configuration=     1
   0.00000000  0.00000000  0.00000000
   0.99979690  0.00188955  0.15822423
   0.00236649  0.01388613  0.32947997
   0.00000001  0.33333336  0.00000000
   0.00027174  0.33629812  0.15802695
   0.99590186  0.33745410  0.31237572
   0.00000002  0.66666672  0.00000000
   0.00126483  0.67020499  0.15742387
   0.00028412  0.67342648  0.31464653
   0.33333334  0.00000000  0.00000000
   0.33329116  0.00170185  0.15756248
   0.32879251  0.00725215  0.30995698
   0.33333335  0.33333336  0.00000000
   0.33200743  0.33339908  0.15714463
   0.32395567  0.33354283  0.31319935
   0.33333336  0.66666672  0.00000000
   0.33263550  0.67059935  0.15802066
   0.32247293  0.67392519  0.33039672
   0.66666668  0.00000000  0.00000000
   0.66536681  0.00131900  0.15795305
   0.66898190  0.00862868  0.31434550
   0.66666668  0.33333336  0.00000000
   0.66629465  0.33512388  0.15833221
   0.65463597  0.32396458  0.33274368
   0.66666670  0.66666672  0.00000000
   0.66826032  0.67014630  0.15698626
   0.66113635  0.67796110  0.31362687
   0.11111113  0.22222222  0.07982145
   0.10936967  0.22414755  0.23637652
   0.11111114  0.55555561  0.07982145
   0.11433205  0.56215838  0.23759210
   0.11111116  0.88888894  0.07982145
   0.10653593  0.89219439  0.23639687
   0.44444450  0.22222222  0.07982145
   0.44961918  0.23330187  0.23686694
   0.44444450  0.55555561  0.07982145
   0.44535012  0.55922480  0.23359385
   0.44444451  0.88888894  0.07982145
   0.44364126  0.88738510  0.23751727
   0.77777779  0.22222222  0.07982145
   0.77568243  0.22828686  0.23650233
   0.77777781  0.55555561  0.07982145
   0.77759573  0.55912383  0.23500646
   0.77777784  0.88888894  0.07982145
   0.78058032  0.89346851  0.23787987
   0.99358234  0.99173979  0.39597746
   0.27870769  0.95487621  0.41233810
   0.87495155  0.21812735  0.41472788
   0.61631060  0.26967494  0.40060347
   0.77408093  0.57273561  0.34533282
   0.35142364  0.70716712  0.39587116
   0.95999676  0.06045582  0.41058582
   0.08815519  0.99884882  0.41008959
   0.38285282  0.05642508  0.40979256
   0.24115847  0.92931929  0.38315920
   0.97350149  0.32353822  0.41801013
   0.86622955  0.20395231  0.38393512
   0.61250691  0.35144720  0.41789888
   0.70441610  0.25266242  0.41166712
   0.79284512  0.60595394  0.37424029
   0.44283313  0.55346246  0.33636771
   0.33056918  0.79264455  0.40661685
   0.46272673  0.73997824  0.40353514
