  63  63   0   0
  0.4095168E+02  0.9555753E-09  0.9555753E-09  0.3262510E-08  0.5000000E-15
  1.000000000000000E-004
  CAR 
 Mg_slab_in_a_box                        
      4.19747744    -25.82518203  301     -0.62646947      1.00000000
    -25.825  0.0000E+00  0.0000E+00
    -25.725  0.0000E+00  0.0000E+00
    -25.625  0.0000E+00  0.0000E+00
    -25.525  0.0000E+00  0.0000E+00
    -25.425  0.0000E+00  0.0000E+00
    -25.325  0.0000E+00  0.0000E+00
    -25.225  0.0000E+00  0.0000E+00
    -25.125  0.0000E+00  0.0000E+00
    -25.025  0.0000E+00  0.0000E+00
    -24.925  0.0000E+00  0.0000E+00
    -24.824  0.0000E+00  0.0000E+00
    -24.724  0.0000E+00  0.0000E+00
    -24.624  0.0000E+00  0.0000E+00
    -24.524  0.0000E+00  0.0000E+00
    -24.424  0.0000E+00  0.0000E+00
    -24.324  0.0000E+00  0.0000E+00
    -24.224  0.0000E+00  0.0000E+00
    -24.124  0.0000E+00  0.0000E+00
    -24.024  0.0000E+00  0.0000E+00
    -23.924  0.0000E+00  0.0000E+00
    -23.824  0.7619E+01  0.5755E-02
    -23.724  0.1043E+02  0.4030E+01
    -23.624  0.0000E+00  0.6000E+01
    -23.523  0.0000E+00  0.6000E+01
    -23.423  0.1365E+01  0.8001E+01
    -23.323  0.5678E+01  0.1200E+02
    -23.223  0.0000E+00  0.1200E+02
    -23.123  0.0000E+00  0.1200E+02
    -23.023  0.0000E+00  0.1200E+02
    -22.923  0.0000E+00  0.1200E+02
    -22.823  0.0000E+00  0.1200E+02
    -22.723  0.0000E+00  0.1200E+02
    -22.623  0.0000E+00  0.1200E+02
    -22.523  0.0000E+00  0.1200E+02
    -22.423  0.0000E+00  0.1200E+02
    -22.323  0.0000E+00  0.1200E+02
    -22.222  0.0000E+00  0.1200E+02
    -22.122  0.0000E+00  0.1200E+02
    -22.022  0.0000E+00  0.1200E+02
    -21.922  0.0000E+00  0.1200E+02
    -21.822  0.0000E+00  0.1200E+02
    -21.722  0.0000E+00  0.1200E+02
    -21.622  0.0000E+00  0.1200E+02
    -21.522  0.0000E+00  0.1200E+02
    -21.422  0.0000E+00  0.1200E+02
    -21.322  0.0000E+00  0.1200E+02
    -21.222  0.0000E+00  0.1200E+02
    -21.122  0.0000E+00  0.1200E+02
    -21.022  0.0000E+00  0.1200E+02
    -20.921  0.0000E+00  0.1200E+02
    -20.821  0.0000E+00  0.1200E+02
    -20.721  0.0000E+00  0.1200E+02
    -20.621  0.0000E+00  0.1200E+02
    -20.521  0.0000E+00  0.1200E+02
    -20.421  0.0000E+00  0.1200E+02
    -20.321  0.0000E+00  0.1200E+02
    -20.221  0.0000E+00  0.1200E+02
    -20.121  0.0000E+00  0.1200E+02
    -20.021  0.0000E+00  0.1200E+02
    -19.921  0.0000E+00  0.1200E+02
    -19.821  0.0000E+00  0.1200E+02
    -19.721  0.0000E+00  0.1200E+02
    -19.620  0.0000E+00  0.1200E+02
    -19.520  0.0000E+00  0.1200E+02
    -19.420  0.0000E+00  0.1200E+02
    -19.320  0.0000E+00  0.1200E+02
    -19.220  0.0000E+00  0.1200E+02
    -19.120  0.0000E+00  0.1200E+02
    -19.020  0.0000E+00  0.1200E+02
    -18.920  0.0000E+00  0.1200E+02
    -18.820  0.0000E+00  0.1200E+02
    -18.720  0.0000E+00  0.1200E+02
    -18.620  0.0000E+00  0.1200E+02
    -18.520  0.0000E+00  0.1200E+02
    -18.420  0.0000E+00  0.1200E+02
    -18.320  0.0000E+00  0.1200E+02
    -18.219  0.0000E+00  0.1200E+02
    -18.119  0.0000E+00  0.1200E+02
    -18.019  0.0000E+00  0.1200E+02
    -17.919  0.0000E+00  0.1200E+02
    -17.819  0.0000E+00  0.1200E+02
    -17.719  0.0000E+00  0.1200E+02
    -17.619  0.0000E+00  0.1200E+02
    -17.519  0.0000E+00  0.1200E+02
    -17.419  0.0000E+00  0.1200E+02
    -17.319  0.0000E+00  0.1200E+02
    -17.219  0.0000E+00  0.1200E+02
    -17.119  0.0000E+00  0.1200E+02
    -17.019  0.0000E+00  0.1200E+02
    -16.918  0.0000E+00  0.1200E+02
    -16.818  0.0000E+00  0.1200E+02
    -16.718  0.0000E+00  0.1200E+02
    -16.618  0.0000E+00  0.1200E+02
    -16.518  0.0000E+00  0.1200E+02
    -16.418  0.0000E+00  0.1200E+02
    -16.318  0.0000E+00  0.1200E+02
    -16.218  0.0000E+00  0.1200E+02
    -16.118  0.0000E+00  0.1200E+02
    -16.018  0.0000E+00  0.1200E+02
    -15.918  0.0000E+00  0.1200E+02
    -15.818  0.0000E+00  0.1200E+02
    -15.718  0.0000E+00  0.1200E+02
    -15.617  0.0000E+00  0.1200E+02
    -15.517  0.0000E+00  0.1200E+02
    -15.417  0.0000E+00  0.1200E+02
    -15.317  0.0000E+00  0.1200E+02
    -15.217  0.0000E+00  0.1200E+02
    -15.117  0.0000E+00  0.1200E+02
    -15.017  0.0000E+00  0.1200E+02
    -14.917  0.0000E+00  0.1200E+02
    -14.817  0.0000E+00  0.1200E+02
    -14.717  0.0000E+00  0.1200E+02
    -14.617  0.0000E+00  0.1200E+02
    -14.517  0.0000E+00  0.1200E+02
    -14.417  0.0000E+00  0.1200E+02
    -14.316  0.0000E+00  0.1200E+02
    -14.216  0.0000E+00  0.1200E+02
    -14.116  0.0000E+00  0.1200E+02
    -14.016  0.0000E+00  0.1200E+02
    -13.916  0.0000E+00  0.1200E+02
    -13.816  0.0000E+00  0.1200E+02
    -13.716  0.0000E+00  0.1200E+02
    -13.616  0.0000E+00  0.1200E+02
    -13.516  0.0000E+00  0.1200E+02
    -13.416  0.0000E+00  0.1200E+02
    -13.316  0.0000E+00  0.1200E+02
    -13.216  0.0000E+00  0.1200E+02
    -13.116  0.0000E+00  0.1200E+02
    -13.016  0.0000E+00  0.1200E+02
    -12.915  0.0000E+00  0.1200E+02
    -12.815  0.0000E+00  0.1200E+02
    -12.715  0.0000E+00  0.1200E+02
    -12.615  0.0000E+00  0.1200E+02
    -12.515  0.0000E+00  0.1200E+02
    -12.415  0.0000E+00  0.1200E+02
    -12.315  0.0000E+00  0.1200E+02
    -12.215  0.0000E+00  0.1200E+02
    -12.115  0.0000E+00  0.1200E+02
    -12.015  0.0000E+00  0.1200E+02
    -11.915  0.0000E+00  0.1200E+02
    -11.815  0.0000E+00  0.1800E+02
    -11.715  0.0000E+00  0.1800E+02
    -11.614  0.0000E+00  0.1800E+02
    -11.514  0.0000E+00  0.1800E+02
    -11.414  0.0000E+00  0.1800E+02
    -11.314  0.0000E+00  0.1800E+02
    -11.214  0.8769E+02  0.1846E+02
    -11.114  0.3959E+02  0.2142E+02
    -11.014  0.0000E+00  0.2400E+02
    -10.914  0.0000E+00  0.2400E+02
    -10.814  0.0000E+00  0.2400E+02
    -10.714  0.0000E+00  0.2400E+02
    -10.614  0.0000E+00  0.2400E+02
    -10.514  0.0000E+00  0.2400E+02
    -10.414  0.0000E+00  0.2400E+02
    -10.313  0.0000E+00  0.2400E+02
    -10.213  0.0000E+00  0.2400E+02
    -10.113  0.0000E+00  0.2400E+02
    -10.013  0.0000E+00  0.2400E+02
     -9.913  0.0000E+00  0.2400E+02
     -9.813  0.0000E+00  0.2400E+02
     -9.713  0.0000E+00  0.2400E+02
     -9.613  0.0000E+00  0.2400E+02
     -9.513  0.0000E+00  0.2400E+02
     -9.413  0.0000E+00  0.2400E+02
     -9.313  0.0000E+00  0.2400E+02
     -9.213  0.0000E+00  0.2400E+02
     -9.113  0.0000E+00  0.2400E+02
     -9.012  0.0000E+00  0.2400E+02
     -8.912  0.0000E+00  0.2400E+02
     -8.812  0.0000E+00  0.2400E+02
     -8.712  0.0000E+00  0.2400E+02
     -8.612  0.1030E+03  0.2898E+02
     -8.512  0.0000E+00  0.3000E+02
     -8.412  0.0000E+00  0.3000E+02
     -8.312  0.0000E+00  0.3000E+02
     -8.212  0.0000E+00  0.3000E+02
     -8.112  0.0000E+00  0.3000E+02
     -8.012  0.0000E+00  0.3000E+02
     -7.912  0.6794E+02  0.3191E+02
     -7.812  0.1045E+02  0.3596E+02
     -7.712  0.0000E+00  0.3600E+02
     -7.611  0.0000E+00  0.3600E+02
     -7.511  0.0000E+00  0.3600E+02
     -7.411  0.0000E+00  0.3600E+02
     -7.311  0.1381E+01  0.3604E+02
     -7.211  0.3653E+01  0.3629E+02
     -7.111  0.5371E+01  0.3677E+02
     -7.011  0.4198E+01  0.3725E+02
     -6.911  0.3026E+01  0.3761E+02
     -6.811  0.1854E+01  0.3785E+02
     -6.711  0.3078E+01  0.3809E+02
     -6.611  0.3011E+02  0.3898E+02
     -6.511  0.2533E+02  0.4145E+02
     -6.411  0.3010E+02  0.4415E+02
     -6.310  0.3225E+01  0.4738E+02
     -6.210  0.2385E+01  0.4766E+02
     -6.110  0.1545E+01  0.4786E+02
     -6.010  0.1721E+02  0.4837E+02
     -5.910  0.3533E+02  0.5188E+02
     -5.810  0.1088E+02  0.5570E+02
     -5.710  0.2434E+02  0.5746E+02
     -5.610  0.1453E+02  0.5904E+02
     -5.510  0.1096E+02  0.6032E+02
     -5.410  0.7378E+01  0.6123E+02
     -5.310  0.3801E+01  0.6179E+02
     -5.210  0.3532E+00  0.6200E+02
     -5.110  0.2435E+02  0.6480E+02
     -5.009  0.0000E+00  0.6600E+02
     -4.909  0.1076E+02  0.6642E+02
     -4.809  0.6260E+01  0.6727E+02
     -4.709  0.2816E+01  0.6769E+02
     -4.609  0.6352E+01  0.6810E+02
     -4.509  0.1177E+02  0.6899E+02
     -4.409  0.1308E+02  0.7119E+02
     -4.309  0.2289E+02  0.7299E+02
     -4.209  0.2452E+02  0.7508E+02
     -4.109  0.1707E+02  0.7768E+02
     -4.009  0.1308E+01  0.7836E+02
     -3.909  0.7231E+01  0.7856E+02
     -3.809  0.2996E+02  0.8079E+02
     -3.708  0.1439E+02  0.8317E+02
     -3.608  0.4924E+01  0.8446E+02
     -3.508  0.7223E+01  0.8510E+02
     -3.408  0.7049E+01  0.8581E+02
     -3.308  0.6874E+01  0.8651E+02
     -3.208  0.7662E+01  0.8722E+02
     -3.108  0.3402E+02  0.8891E+02
     -3.008  0.9832E+01  0.9134E+02
     -2.908  0.9482E+01  0.9237E+02
     -2.808  0.3928E+02  0.9522E+02
     -2.708  0.2812E+02  0.9920E+02
     -2.608  0.1152E+02  0.1010E+03
     -2.508  0.8207E+01  0.1019E+03
     -2.408  0.7935E+01  0.1027E+03
     -2.307  0.1646E+02  0.1066E+03
     -2.207  0.2566E+01  0.1075E+03
     -2.107  0.1316E+02  0.1085E+03
     -2.007  0.4629E+01  0.1094E+03
     -1.907  0.1037E+02  0.1099E+03
     -1.807  0.3148E+02  0.1120E+03
     -1.707  0.2965E+02  0.1155E+03
     -1.607  0.3639E+02  0.1188E+03
     -1.507  0.2683E+02  0.1220E+03
     -1.407  0.1355E+02  0.1239E+03
     -1.307  0.8546E+01  0.1250E+03
     -1.207  0.1100E+02  0.1274E+03
     -1.107  0.9837E+01  0.1284E+03
     -1.006  0.1488E+02  0.1296E+03
     -0.906  0.1955E+02  0.1323E+03
     -0.806  0.2145E+02  0.1346E+03
     -0.706  0.9196E+01  0.1359E+03
     -0.606  0.6727E+02  0.1395E+03
     -0.506  0.2012E+02  0.1427E+03
     -0.406  0.1333E+02  0.1447E+03
     -0.306  0.1405E+02  0.1460E+03
     -0.206  0.9899E+01  0.1475E+03
     -0.106  0.3970E+02  0.1487E+03
     -0.006  0.5490E+01  0.1500E+03
      0.094  0.1482E+02  0.1539E+03
      0.194  0.2289E+02  0.1561E+03
      0.295  0.1790E+01  0.1600E+03
      0.395  0.8260E+01  0.1605E+03
      0.495  0.3011E+02  0.1620E+03
      0.595  0.3915E+02  0.1660E+03
      0.695  0.1349E+02  0.1688E+03
      0.795  0.5099E+01  0.1696E+03
      0.895  0.3695E+02  0.1731E+03
      0.995  0.1107E+02  0.1749E+03
      1.095  0.1929E+02  0.1784E+03
      1.195  0.1406E+02  0.1801E+03
      1.295  0.2720E+02  0.1826E+03
      1.395  0.2369E+02  0.1862E+03
      1.495  0.4412E+02  0.1907E+03
      1.596  0.4503E+02  0.1961E+03
      1.696  0.2023E+02  0.1996E+03
      1.796  0.2544E+02  0.2019E+03
      1.896  0.4109E+01  0.2022E+03
      1.996  0.4119E+01  0.2026E+03
      2.096  0.4128E+01  0.2030E+03
      2.196  0.9931E+01  0.2040E+03
      2.296  0.0000E+00  0.2040E+03
      2.396  0.0000E+00  0.2040E+03
      2.496  0.0000E+00  0.2040E+03
      2.596  0.0000E+00  0.2040E+03
      2.696  0.0000E+00  0.2040E+03
      2.796  0.0000E+00  0.2040E+03
      2.896  0.0000E+00  0.2040E+03
      2.997  0.0000E+00  0.2040E+03
      3.097  0.0000E+00  0.2040E+03
      3.197  0.0000E+00  0.2040E+03
      3.297  0.0000E+00  0.2040E+03
      3.397  0.0000E+00  0.2040E+03
      3.497  0.0000E+00  0.2040E+03
      3.597  0.0000E+00  0.2040E+03
      3.697  0.0000E+00  0.2040E+03
      3.797  0.0000E+00  0.2040E+03
      3.897  0.0000E+00  0.2040E+03
      3.997  0.0000E+00  0.2040E+03
      4.097  0.0000E+00  0.2040E+03
      4.197  0.0000E+00  0.2040E+03
