   63   63    1    1
  0.4095168E+02  0.9555753E-09  0.9555753E-09  0.3262510E-08  0.5000000E-15
  1.000000000000000E-004
  CAR 
 Mg_slab_in_a_box                        
    138      5    102
 
  0.0000000E+00  0.0000000E+00  0.0000000E+00  0.1111111E+00
    1      -23.825182   1.000000
    2      -23.726875   1.000000
    3      -23.721237   1.000000
    4      -23.449572   1.000000
    5      -23.425188   1.000000
    6      -23.322026   1.000000
    7      -11.860384   1.000000
    8      -11.855594   1.000000
    9      -11.831501   1.000000
   10      -11.220417   1.000000
   11      -11.085848   1.000000
   12      -11.061969   1.000000
   13       -8.676278   1.000000
   14       -8.608792   1.000000
   15       -8.605149   1.000000
   16       -7.939309   1.000000
   17       -7.917264   1.000000
   18       -7.804665   1.000000
   19       -7.372061   1.000000
   20       -6.801549   1.000000
   21       -6.472813   1.000000
   22       -6.449845   1.000000
   23       -6.312492   1.000000
   24       -5.926167   1.000000
   25       -5.906572   1.000000
   26       -5.875404   1.000000
   27       -5.850622   1.000000
   28       -5.220106   1.000000
   29       -5.215582   1.000000
   30       -5.214507   1.000000
   31       -5.213024   1.000000
   32       -5.179128   1.000000
   33       -5.177157   1.000000
   34       -4.742135   1.000000
   35       -4.692475   1.000000
   36       -4.685987   1.000000
   37       -4.678927   1.000000
   38       -4.678254   1.000000
   39       -4.558953   1.000000
   40       -4.556251   1.000000
   41       -3.824562   1.000000
   42       -3.820337   1.000000
   43       -3.806542   1.000000
   44       -3.803151   1.000000
   45       -3.664734   1.000000
   46       -3.661783   1.000000
   47       -3.265532   1.000000
   48       -2.700073   1.000000
   49       -2.695645   1.000000
   50       -2.650258   1.000000
   51       -2.644890   1.000000
   52       -2.596121   1.000000
   53       -2.592711   1.000000
   54       -1.823823   1.000000
   55       -1.322460   1.000000
   56       -1.315210   1.000000
   57       -1.233094   1.000000
   58       -1.230084   1.000000
   59       -1.093916   1.000000
   60       -1.073833   1.000000
   61       -1.071029   1.000000
   62       -1.041766   1.000000
   63       -1.037993   1.000000
   64       -1.034803   1.000000
   65       -0.996593   1.000000
   66       -0.992770   1.000000
   67       -0.731222   1.000000
   68       -0.620851   0.610883
   69       -0.541092   0.000000
   70       -0.515975   0.000000
   71       -0.399260   0.000000
   72       -0.388629   0.000000
   73       -0.187252   0.000000
   74       -0.097401   0.000000
   75       -0.073179   0.000000
   76        0.087976   0.000000
   77        0.096215   0.000000
   78        0.187271   0.000000
   79        0.190021   0.000000
   80        0.268768   0.000000
   81        0.312899   0.000000
   82        0.453917   0.000000
   83        0.456706   0.000000
   84        0.772522   0.000000
   85        1.043213   0.000000
   86        1.044354   0.000000
   87        1.060871   0.000000
   88        1.061346   0.000000
   89        1.066863   0.000000
   90        1.067571   0.000000
   91        1.090369   0.000000
   92        1.200665   0.000000
   93        1.260714   0.000000
   94        1.328612   0.000000
   95        1.562191   0.000000
   96        1.594324   0.000000
   97        1.603548   0.000000
   98        1.612743   0.000000
   99        1.615953   0.000000
  100        1.624104   0.000000
  101        1.642950   0.000000
  102        1.731812   0.000000
 
  0.3333333E+00 -0.2775558E-16  0.0000000E+00  0.2222222E+00
    1      -23.811268   1.000000
    2      -23.770340   1.000000
    3      -23.689172   1.000000
    4      -23.476894   1.000000
    5      -23.385556   1.000000
    6      -23.336940   1.000000
    7      -11.860494   1.000000
    8      -11.849714   1.000000
    9      -11.836579   1.000000
   10      -11.200961   1.000000
   11      -11.140408   1.000000
   12      -11.027291   1.000000
   13       -8.654936   1.000000
   14       -8.621868   1.000000
   15       -8.616044   1.000000
   16       -7.924363   1.000000
   17       -7.898858   1.000000
   18       -7.834667   1.000000
   19       -7.129573   1.000000
   20       -6.573690   1.000000
   21       -6.510532   1.000000
   22       -6.435997   1.000000
   23       -6.367387   1.000000
   24       -6.317047   1.000000
   25       -5.934333   1.000000
   26       -5.895797   1.000000
   27       -5.861034   1.000000
   28       -5.820423   1.000000
   29       -5.693406   1.000000
   30       -5.666510   1.000000
   31       -5.643817   1.000000
   32       -5.158589   1.000000
   33       -5.071105   1.000000
   34       -4.945209   1.000000
   35       -4.505231   1.000000
   36       -4.285638   1.000000
   37       -4.267456   1.000000
   38       -4.239719   1.000000
   39       -4.188518   1.000000
   40       -3.807790   1.000000
   41       -3.742872   1.000000
   42       -3.645435   1.000000
   43       -3.547427   1.000000
   44       -3.142669   1.000000
   45       -3.083067   1.000000
   46       -3.028757   1.000000
   47       -2.982652   1.000000
   48       -2.888506   1.000000
   49       -2.864982   1.000000
   50       -2.836949   1.000000
   51       -2.789314   1.000000
   52       -2.355160   1.000000
   53       -2.326748   1.000000
   54       -2.269942   1.000000
   55       -2.165767   1.000000
   56       -1.780760   1.000000
   57       -1.731242   1.000000
   58       -1.719441   1.000000
   59       -1.593487   1.000000
   60       -1.566648   1.000000
   61       -1.523671   1.000000
   62       -1.490157   1.000000
   63       -1.447471   1.000000
   64       -1.273345   1.000000
   65       -0.910348   1.000000
   66       -0.823369   1.000000
   67       -0.815026   1.000000
   68       -0.635368   1.004196
   69       -0.623368   0.504039
   70       -0.614850   0.140147
   71       -0.593633  -0.017466
   72       -0.472665  -0.021365
   73       -0.324024   0.000000
   74       -0.107314   0.000000
   75       -0.007228   0.000000
   76        0.021040   0.000000
   77        0.055718   0.000000
   78        0.122936   0.000000
   79        0.202962   0.000000
   80        0.272155   0.000000
   81        0.514035   0.000000
   82        0.527034   0.000000
   83        0.558894   0.000000
   84        0.597828   0.000000
   85        0.620411   0.000000
   86        0.822954   0.000000
   87        0.863602   0.000000
   88        0.888272   0.000000
   89        1.029661   0.000000
   90        1.039061   0.000000
   91        1.040619   0.000000
   92        1.254602   0.000000
   93        1.330001   0.000000
   94        1.334654   0.000000
   95        1.408543   0.000000
   96        1.412779   0.000000
   97        1.455725   0.000000
   98        1.525388   0.000000
   99        1.544249   0.000000
  100        1.659346   0.000000
  101        1.780407   0.000000
  102        2.197477   0.000000
 
  0.0000000E+00  0.3333333E+00  0.0000000E+00  0.2222222E+00
    1      -23.811302   1.000000
    2      -23.770158   1.000000
    3      -23.689417   1.000000
    4      -23.476744   1.000000
    5      -23.385495   1.000000
    6      -23.337052   1.000000
    7      -11.860563   1.000000
    8      -11.849695   1.000000
    9      -11.836526   1.000000
   10      -11.201014   1.000000
   11      -11.140384   1.000000
   12      -11.027251   1.000000
   13       -8.654574   1.000000
   14       -8.623394   1.000000
   15       -8.614964   1.000000
   16       -7.924165   1.000000
   17       -7.898378   1.000000
   18       -7.835330   1.000000
   19       -7.129563   1.000000
   20       -6.573662   1.000000
   21       -6.510617   1.000000
   22       -6.435891   1.000000
   23       -6.367295   1.000000
   24       -6.316965   1.000000
   25       -5.934928   1.000000
   26       -5.895005   1.000000
   27       -5.860666   1.000000
   28       -5.821032   1.000000
   29       -5.694361   1.000000
   30       -5.665623   1.000000
   31       -5.643936   1.000000
   32       -5.160049   1.000000
   33       -5.069475   1.000000
   34       -4.945142   1.000000
   35       -4.505230   1.000000
   36       -4.286658   1.000000
   37       -4.268451   1.000000
   38       -4.238957   1.000000
   39       -4.186965   1.000000
   40       -3.807698   1.000000
   41       -3.744220   1.000000
   42       -3.644231   1.000000
   43       -3.547639   1.000000
   44       -3.143612   1.000000
   45       -3.082131   1.000000
   46       -3.028688   1.000000
   47       -2.982641   1.000000
   48       -2.889659   1.000000
   49       -2.866007   1.000000
   50       -2.836196   1.000000
   51       -2.788026   1.000000
   52       -2.356652   1.000000
   53       -2.326570   1.000000
   54       -2.268542   1.000000
   55       -2.166416   1.000000
   56       -1.782074   1.000000
   57       -1.731873   1.000000
   58       -1.717849   1.000000
   59       -1.593420   1.000000
   60       -1.565396   1.000000
   61       -1.525427   1.000000
   62       -1.491142   1.000000
   63       -1.445631   1.000000
   64       -1.277075   1.000000
   65       -0.910193   1.000000
   66       -0.822111   1.000000
   67       -0.814900   1.000000
   68       -0.636679   1.010284
   69       -0.618590   0.488935
   70       -0.610941   0.092150
   71       -0.593090  -0.018704
   72       -0.471034  -0.021424
   73       -0.325278   0.000000
   74       -0.104721   0.000000
   75       -0.004161   0.000000
   76        0.017469   0.000000
   77        0.053968   0.000000
   78        0.122958   0.000000
   79        0.200162   0.000000
   80        0.271429   0.000000
   81        0.514531   0.000000
   82        0.523261   0.000000
   83        0.559007   0.000000
   84        0.591514   0.000000
   85        0.622598   0.000000
   86        0.823928   0.000000
   87        0.857111   0.000000
   88        0.893058   0.000000
   89        1.029603   0.000000
   90        1.038891   0.000000
   91        1.045280   0.000000
   92        1.255372   0.000000
   93        1.328536   0.000000
   94        1.334008   0.000000
   95        1.400730   0.000000
   96        1.413516   0.000000
   97        1.461025   0.000000
   98        1.525692   0.000000
   99        1.552799   0.000000
  100        1.659420   0.000000
  101        1.785774   0.000000
  102        1.887280   0.000000
 
  0.3333333E+00  0.3333333E+00  0.0000000E+00  0.2222222E+00
    1      -23.814763   1.000000
    2      -23.736036   1.000000
    3      -23.729440   1.000000
    4      -23.441347   1.000000
    5      -23.415876   1.000000
    6      -23.332681   1.000000
    7      -11.855915   1.000000
    8      -11.853078   1.000000
    9      -11.836608   1.000000
   10      -11.226657   1.000000
   11      -11.083997   1.000000
   12      -11.059287   1.000000
   13       -8.640377   1.000000
   14       -8.635523   1.000000
   15       -8.617866   1.000000
   16       -7.905189   1.000000
   17       -7.891137   1.000000
   18       -7.859368   1.000000
   19       -6.652569   1.000000
   20       -6.651864   1.000000
   21       -6.645507   1.000000
   22       -6.478179   1.000000
   23       -6.456064   1.000000
   24       -6.332192   1.000000
   25       -6.059969   1.000000
   26       -6.059124   1.000000
   27       -6.051926   1.000000
   28       -5.928748   1.000000
   29       -5.909984   1.000000
   30       -5.847394   1.000000
   31       -5.181351   1.000000
   32       -5.179817   1.000000
   33       -5.174310   1.000000
   34       -4.489192   1.000000
   35       -4.488712   1.000000
   36       -4.488368   1.000000
   37       -4.044262   1.000000
   38       -4.042326   1.000000
   39       -4.035273   1.000000
   40       -3.929504   1.000000
   41       -3.924976   1.000000
   42       -3.924241   1.000000
   43       -3.077669   1.000000
   44       -3.076375   1.000000
   45       -3.075796   1.000000
   46       -2.566455   1.000000
   47       -2.563957   1.000000
   48       -2.554270   1.000000
   49       -2.407907   1.000000
   50       -2.406425   1.000000
   51       -2.404919   1.000000
   52       -2.377905   1.000000
   53       -2.375945   1.000000
   54       -2.374697   1.000000
   55       -1.979579   1.000000
   56       -1.978379   1.000000
   57       -1.977694   1.000000
   58       -1.918190   1.000000
   59       -1.915272   1.000000
   60       -1.912353   1.000000
   61       -1.798258   1.000000
   62       -1.796402   1.000000
   63       -1.793961   1.000000
   64       -1.289281   1.000000
   65       -1.285129   1.000000
   66       -1.277661   1.000000
   67       -1.130837   1.000000
   68       -1.127488   1.000000
   69       -1.119289   1.446880
   70       -0.658609   1.023063
   71       -0.650550   0.500745
   72       -0.646279   0.103593
   73       -0.562766   0.000000
   74       -0.539459   0.000000
   75       -0.537316   0.000000
   76        0.099184   0.000000
   77        0.105268   0.000000
   78        0.109988   0.000000
   79        0.213268   0.000000
   80        0.241013   0.000000
   81        0.246869   0.000000
   82        0.595126   0.000000
   83        0.605295   0.000000
   84        0.622647   0.000000
   85        0.871312   0.000000
   86        0.899822   0.000000
   87        0.902058   0.000000
   88        1.437854   0.000000
   89        1.449902   0.000000
   90        1.459345   0.000000
   91        1.504132   0.000000
   92        1.513462   0.000000
   93        1.519722   0.000000
   94        1.657054   0.000000
   95        1.667601   0.000000
   96        1.682422   0.000000
   97        1.708008   0.000000
   98        1.711628   0.000000
   99        1.714511   0.000000
  100        1.766568   0.000000
  101        1.773204   0.000000
  102        2.124599   0.000000
 
 -0.3333333E+00  0.3333333E+00  0.0000000E+00  0.2222222E+00
    1      -23.801859   1.000000
    2      -23.779063   1.000000
    3      -23.693416   1.000000
    4      -23.472713   1.000000
    5      -23.377320   1.000000
    6      -23.345816   1.000000
    7      -11.859187   1.000000
    8      -11.846897   1.000000
    9      -11.839913   1.000000
   10      -11.206312   1.000000
   11      -11.136879   1.000000
   12      -11.026524   1.000000
   13       -8.661859   1.000000
   14       -8.633208   1.000000
   15       -8.597312   1.000000
   16       -7.924969   1.000000
   17       -7.898780   1.000000
   18       -7.833200   1.000000
   19       -7.129970   1.000000
   20       -6.582818   1.000000
   21       -6.523597   1.000000
   22       -6.390772   1.000000
   23       -6.364760   1.000000
   24       -6.340923   1.000000
   25       -5.937174   1.000000
   26       -5.899171   1.000000
   27       -5.857025   1.000000
   28       -5.823748   1.000000
   29       -5.691881   1.000000
   30       -5.667191   1.000000
   31       -5.642394   1.000000
   32       -5.154906   1.000000
   33       -5.073455   1.000000
   34       -4.946620   1.000000
   35       -4.504521   1.000000
   36       -4.274123   1.000000
   37       -4.266434   1.000000
   38       -4.240204   1.000000
   39       -4.200929   1.000000
   40       -3.812139   1.000000
   41       -3.739841   1.000000
   42       -3.643294   1.000000
   43       -3.547527   1.000000
   44       -3.119282   1.000000
   45       -3.102084   1.000000
   46       -3.027570   1.000000
   47       -2.984747   1.000000
   48       -2.874991   1.000000
   49       -2.863992   1.000000
   50       -2.837855   1.000000
   51       -2.801777   1.000000
   52       -2.350855   1.000000
   53       -2.336221   1.000000
   54       -2.272365   1.000000
   55       -2.165936   1.000000
   56       -1.755478   1.000000
   57       -1.741328   1.000000
   58       -1.666227   1.000000
   59       -1.626699   1.000000
   60       -1.595967   1.000000
   61       -1.518370   1.000000
   62       -1.491641   1.000000
   63       -1.466275   1.000000
   64       -1.273828   1.000000
   65       -0.930260   1.000000
   66       -0.823476   1.000000
   67       -0.813403   1.000000
   68       -0.650350   1.040733
   69       -0.623496   0.504450
   70       -0.597053  -0.006678
   71       -0.556587  -0.057863
   72       -0.477999  -0.021160
   73       -0.253487   0.000000
   74       -0.206859   0.000000
   75       -0.015086   0.000000
   76        0.029260   0.000000
   77        0.053424   0.000000
   78        0.129527   0.000000
   79        0.234097   0.000000
   80        0.248070   0.000000
   81        0.511490   0.000000
   82        0.533952   0.000000
   83        0.559250   0.000000
   84        0.603819   0.000000
   85        0.619083   0.000000
   86        0.821059   0.000000
   87        0.873606   0.000000
   88        0.897141   0.000000
   89        1.024745   0.000000
   90        1.028224   0.000000
   91        1.085860   0.000000
   92        1.213689   0.000000
   93        1.323324   0.000000
   94        1.343158   0.000000
   95        1.418395   0.000000
   96        1.424583   0.000000
   97        1.448100   0.000000
   98        1.536982   0.000000
   99        1.563097   0.000000
  100        1.607585   0.000000
  101        1.802795   0.000000
  102        2.194763   0.000000
