       N       E                     dE             d eps       ncg     rms          rms(c)
RMM:   1     0.123796113799E+04    0.12380E+04   -0.27829E+04   510   0.784E+02
RMM:   2     0.544769113989E+03   -0.69319E+03   -0.75028E+03   510   0.165E+02
RMM:   3     0.310252166906E+03   -0.23452E+03   -0.29646E+03   510   0.828E+01
RMM:   4     0.134254947172E+03   -0.17600E+03   -0.15118E+03   510   0.787E+01
RMM:   5     0.176796054678E+02   -0.11658E+03   -0.93910E+02   510   0.626E+01
RMM:   6    -0.438110897334E+02   -0.61491E+02   -0.47242E+02   510   0.442E+01
RMM:   7    -0.690135290529E+02   -0.25202E+02   -0.19349E+02   510   0.254E+01
RMM:   8    -0.757831833229E+02   -0.67697E+01   -0.58178E+01   510   0.133E+01
RMM:   9    -0.780412305987E+02   -0.22580E+01   -0.21791E+01  1511   0.748E+00
RMM:  10    -0.783372327860E+02   -0.29600E+00   -0.30240E+00  1773   0.276E+00
RMM:  11    -0.783407010008E+02   -0.34682E-02   -0.16674E-01  1691   0.703E-01
RMM:  12    -0.783435518084E+02   -0.28508E-02   -0.34285E-02  1811   0.300E-01    0.195E+01
RMM:  13    -0.683314082137E+02    0.10012E+02   -0.56049E+01  1439   0.129E+01    0.751E+00
RMM:  14    -0.727977846477E+02   -0.44664E+01   -0.31680E+00  1511   0.286E+00    0.629E+00
RMM:  15    -0.693992791497E+02    0.33985E+01   -0.13008E+00  1485   0.104E+00    0.537E+00
RMM:  16    -0.679133307185E+02    0.14859E+01   -0.10151E+00  1436   0.191E+00    0.203E+00
RMM:  17    -0.678681539085E+02    0.45177E-01   -0.24715E-01  1331   0.110E+00    0.836E-01
RMM:  18    -0.678586499624E+02    0.95039E-02   -0.13117E-01  1583   0.687E-01    0.341E-01
RMM:  19    -0.678578238102E+02    0.82615E-03   -0.17299E-02  1406   0.264E-01    0.265E-01
RMM:  20    -0.678558851773E+02    0.19386E-02   -0.15726E-02  1570   0.237E-01    0.813E-02
RMM:  21    -0.678533538004E+02    0.25314E-02   -0.14626E-03  1542   0.745E-02    0.381E-02
RMM:  22    -0.678460102039E+02    0.73436E-02   -0.12181E-03  1328   0.576E-02    0.448E-02
RMM:  23    -0.678443309677E+02    0.16792E-02   -0.10569E-03  1338   0.608E-02    0.405E-02
RMM:  24    -0.678450552519E+02   -0.72428E-03   -0.20948E-04  1188   0.287E-02    0.154E-02
RMM:  25    -0.678455869832E+02   -0.53173E-03   -0.37464E-04  1100   0.356E-02    0.190E-02
RMM:  26    -0.678453535532E+02    0.23343E-03   -0.19187E-04  1053   0.223E-02    0.414E-03
RMM:  27    -0.678452406099E+02    0.11294E-03   -0.20220E-04  1004   0.183E-02    0.657E-03
RMM:  28    -0.678452594529E+02   -0.18843E-04   -0.43691E-05   916   0.933E-03    0.133E-03
RMM:  29    -0.678452964998E+02   -0.37047E-04   -0.19152E-05   827   0.645E-03    0.816E-04
RMM:  30    -0.678453556193E+02   -0.59120E-04   -0.67331E-05   816   0.779E-03    0.430E-04
RMM:  31    -0.678453558577E+02   -0.23841E-06   -0.16760E-05   758   0.523E-03
   1 F= -.67845356E+02 E0= -.67845356E+02  d E =0.000000E+00
