<?xml version="1.0" encoding="ISO-8859-1"?>
<modeling>
 <generator>
  <i name="program" type="string">vasp </i>
  <i name="version" type="string">5.4.4.18Apr17-6-g9f103f2a35  </i>
  <i name="subversion" type="string">(build Jun 08 2018 12:06:12) complex            parallel </i>
  <i name="platform" type="string">LinuxIFC </i>
  <i name="date" type="string">2019 06 06 </i>
  <i name="time" type="string">06:09:28 </i>
 </generator>
 <incar>
  <i type="string" name="SYSTEM"> Mg_slab_in_a_box</i>
  <i type="string" name="PREC">accurate</i>
  <i type="string" name="ALGO"> V</i>
  <i type="int" name="NELM">   300</i>
  <i type="int" name="NELMIN">     6</i>
  <i name="EDIFF">      0.00000500</i>
  <i name="ENCUT">    520.00000000</i>
  <i type="string" name="LREAL"> AUTO</i>
  <i type="logical" name="LPLANE"> T  </i>
  <i type="int" name="ISMEAR">    -5</i>
  <i type="logical" name="LWAVE"> F  </i>
  <i type="logical" name="LCHARG"> T  </i>
  <i type="logical" name="LVTOT"> T  </i>
  <i type="logical" name="LVHAR"> T  </i>
  <i type="logical" name="LSCALU"> F  </i>
  <i type="logical" name="LASPH"> T  </i>
  <i type="logical" name="LAECHG"> T  </i>
  <v type="int" name="KPOINT_BSE">    -1     0     0     0</v>
  <i type="int" name="NELM">   300</i>
  <i type="string" name="GGA"> BO</i>
  <i name="PARAM1">      0.18333333</i>
  <i name="PARAM2">      0.22000000</i>
  <i type="logical" name="LUSE_VDW"> T  </i>
  <i name="AGGAC">      0.00000000</i>
  <i type="logical" name="LDIPOL"> T  </i>
  <i type="int" name="IDIPOL">     3</i>
  <i type="logical" name="LASPH"> T  </i>
 </incar>
 <structure name="primitive_cell" >
  <crystal>
   <varray name="basis" >
    <v>       9.55575275       0.00000000       0.00000000 </v>
    <v>      -4.77787638       8.27552464       0.00000000 </v>
    <v>       0.00000000       0.00000000      32.62509537 </v>
   </varray>
   <i name="volume">   2579.95558872 </i>
   <varray name="rec_basis" >
    <v>       0.10464900       0.06041913       0.00000000 </v>
    <v>       0.00000000       0.12083826       0.00000000 </v>
    <v>       0.00000000       0.00000000       0.03065125 </v>
   </varray>
  </crystal>
  <varray name="positions" >
   <v>       0.00000000       0.00000000       0.00000000 </v>
   <v>       0.00000002      -0.33333328       0.00000000 </v>
   <v>      -0.33333330      -0.33333328       0.00000000 </v>
   <v>      -0.33333332       0.00000000       0.00000000 </v>
   <v>       0.33333334       0.00000000       0.00000000 </v>
   <v>       0.00000001       0.33333336       0.00000000 </v>
   <v>       0.33333335       0.33333336       0.00000000 </v>
   <v>      -0.22222216      -0.11111106       0.07982145 </v>
   <v>       0.11111116      -0.11111106       0.07982145 </v>
   <v>       0.11111113       0.22222222       0.07982145 </v>
   <v>      -0.22222219      -0.44444439       0.07982145 </v>
   <v>      -0.22222221       0.22222222       0.07982145 </v>
   <v>       0.44444450       0.22222222       0.07982145 </v>
   <v>       0.00127256       0.00156052       0.15936183 </v>
   <v>       0.33333336      -0.33333328       0.00000000 </v>
   <v>      -0.33333332       0.33333336       0.00000000 </v>
   <v>       0.44444450      -0.44444439       0.07982145 </v>
   <v>       0.44444451      -0.11111106       0.07982145 </v>
   <v>       0.11111114      -0.44444439       0.07982145 </v>
   <v>      -0.33152802      -0.33174858       0.15863905 </v>
   <v>      -0.33209660       0.00106299       0.15856137 </v>
   <v>       0.00116661      -0.33232294       0.15857452 </v>
   <v>       0.00177963       0.33491977       0.15861501 </v>
   <v>       0.33510143       0.00157316       0.15858508 </v>
   <v>       0.33452475       0.33443390       0.15856748 </v>
   <v>      -0.33201253       0.33490660       0.15936380 </v>
   <v>       0.33459854      -0.33185346       0.15936190 </v>
   <v>       0.11081747      -0.10894259       0.23748211 </v>
   <v>      -0.21656978      -0.10573791       0.23823845 </v>
   <v>       0.11320987       0.22115501       0.23829788 </v>
   <v>      -0.22245219       0.22445532       0.23752153 </v>
   <v>      -0.22019265      -0.44551039       0.23840051 </v>
   <v>       0.45010571       0.22779254       0.23809776 </v>
   <v>       0.44444948      -0.44194811       0.23758967 </v>
   <v>       0.44667309      -0.11212763       0.23820954 </v>
   <v>       0.11681488      -0.43880855       0.23820346 </v>
   <v>       0.33547288       0.00351249       0.31308937 </v>
   <v>      -0.33103135      -0.32961463       0.31363854 </v>
   <v>       0.00211736       0.33706712       0.31325100 </v>
   <v>       0.00324451      -0.32873178       0.31695189 </v>
   <v>      -0.32986620       0.00434791       0.31684649 </v>
   <v>       0.33686844       0.33805741       0.31674180 </v>
   <v>       0.00039582       0.00187462       0.33380355 </v>
   <v>       0.33305381      -0.33188972       0.33371926 </v>
   <v>      -0.33383096       0.33425371       0.33366259 </v>
   <v>       0.23032567      -0.10011021       0.38693648 </v>
   <v>      -0.10600873       0.23112975       0.38690925 </v>
   <v>      -0.00275395      -0.00074576       0.39997884 </v>
   <v>      -0.44399335      -0.44126223       0.38734889 </v>
   <v>      -0.01470086       0.08516342       0.41350538 </v>
   <v>       0.08389148      -0.01062353       0.41374721 </v>
   <v>       0.25845674      -0.07375672       0.41656057 </v>
   <v>      -0.07900385       0.25734702       0.41659676 </v>
   <v>      -0.31442573      -0.31408660       0.41648027 </v>
   <v>       0.36161585       0.02840061       0.41550325 </v>
   <v>       0.02304343       0.36063772       0.41572457 </v>
   <v>      -0.34261438       0.32535261       0.40002583 </v>
   <v>       0.32581758      -0.33763682       0.40001481 </v>
   <v>      -0.41738248      -0.41647840       0.41711106 </v>
   <v>       0.31650335      -0.25002623       0.41347656 </v>
   <v>      -0.25541997       0.31613444       0.41373765 </v>
   <v>      -0.35499578       0.41089290       0.41364769 </v>
   <v>       0.41070292      -0.35014320       0.41390613 </v>
  </varray>
 </structure>
 <varray name="primitive_index" >
  <v type="int" >        1 </v>
  <v type="int" >        7 </v>
  <v type="int" >       25 </v>
  <v type="int" >       19 </v>
  <v type="int" >       10 </v>
  <v type="int" >        4 </v>
  <v type="int" >       13 </v>
  <v type="int" >       44 </v>
  <v type="int" >       32 </v>
  <v type="int" >       28 </v>
  <v type="int" >       42 </v>
  <v type="int" >       40 </v>
  <v type="int" >       34 </v>
  <v type="int" >        2 </v>
  <v type="int" >       16 </v>
  <v type="int" >       22 </v>
  <v type="int" >       36 </v>
  <v type="int" >       38 </v>
  <v type="int" >       30 </v>
  <v type="int" >       26 </v>
  <v type="int" >       20 </v>
  <v type="int" >        8 </v>
  <v type="int" >        5 </v>
  <v type="int" >       11 </v>
  <v type="int" >       14 </v>
  <v type="int" >       23 </v>
  <v type="int" >       17 </v>
  <v type="int" >       33 </v>
  <v type="int" >       45 </v>
  <v type="int" >       29 </v>
  <v type="int" >       41 </v>
  <v type="int" >       43 </v>
  <v type="int" >       35 </v>
  <v type="int" >       37 </v>
  <v type="int" >       39 </v>
  <v type="int" >       31 </v>
  <v type="int" >       12 </v>
  <v type="int" >       27 </v>
  <v type="int" >        6 </v>
  <v type="int" >        9 </v>
  <v type="int" >       21 </v>
  <v type="int" >       15 </v>
  <v type="int" >        3 </v>
  <v type="int" >       18 </v>
  <v type="int" >       24 </v>
  <v type="int" >       55 </v>
  <v type="int" >       57 </v>
  <v type="int" >       46 </v>
  <v type="int" >       61 </v>
  <v type="int" >       52 </v>
  <v type="int" >       53 </v>
  <v type="int" >       47 </v>
  <v type="int" >       48 </v>
  <v type="int" >       60 </v>
  <v type="int" >       54 </v>
  <v type="int" >       56 </v>
  <v type="int" >       49 </v>
  <v type="int" >       51 </v>
  <v type="int" >       50 </v>
  <v type="int" >       62 </v>
  <v type="int" >       59 </v>
  <v type="int" >       58 </v>
  <v type="int" >       63 </v>
 </varray>
 <kpoints>
  <generation param="Gamma">
   <v type="int" name="divisions">       3        3        1 </v>
   <v name="usershift">      0.00000000       0.00000000       0.00000000 </v>
   <v name="genvec1">      0.33333333       0.00000000       0.00000000 </v>
   <v name="genvec2">      0.00000000       0.33333333       0.00000000 </v>
   <v name="genvec3">      0.00000000       0.00000000       1.00000000 </v>
   <v name="shift">      0.00000000       0.00000000       0.00000000 </v>
  </generation>
  <varray name="kpointlist" >
   <v>       0.00000000       0.00000000       0.00000000 </v>
   <v>       0.33333333      -0.00000000       0.00000000 </v>
   <v>       0.00000000       0.33333333       0.00000000 </v>
   <v>       0.33333333       0.33333333       0.00000000 </v>
   <v>      -0.33333333       0.33333333       0.00000000 </v>
  </varray>
  <varray name="weights" >
   <v>       0.11111111 </v>
   <v>       0.22222222 </v>
   <v>       0.22222222 </v>
   <v>       0.22222222 </v>
   <v>       0.22222222 </v>
  </varray>
  <varray name="tetrahedronlist"  type="int" >
   <v type="int" >        2        2        3        3        4 </v>
   <v type="int" >        2        1        2        3        3 </v>
   <v type="int" >        2        1        1        2        3 </v>
   <v type="int" >        2        2        3        4        4 </v>
   <v type="int" >        2        2        2        3        4 </v>
   <v type="int" >        2        1        2        2        3 </v>
   <v type="int" >        2        2        4        4        5 </v>
   <v type="int" >        2        2        2        4        4 </v>
   <v type="int" >        4        2        2        2        4 </v>
   <v type="int" >        2        2        4        5        5 </v>
   <v type="int" >        2        2        2        4        5 </v>
   <v type="int" >        2        1        3        5        5 </v>
   <v type="int" >        2        1        2        5        5 </v>
   <v type="int" >        2        1        2        2        5 </v>
   <v type="int" >        2        1        3        3        5 </v>
   <v type="int" >        2        1        1        3        5 </v>
   <v type="int" >        2        1        1        2        5 </v>
   <v type="int" >        2        3        3        4        5 </v>
   <v type="int" >        4        3        3        3        4 </v>
   <v type="int" >        2        3        4        5        5 </v>
   <v type="int" >        2        3        4        4        5 </v>
   <v type="int" >        2        3        3        4        4 </v>
   <v type="int" >        4        4        5        5        5 </v>
   <v type="int" >        2        4        4        5        5 </v>
  </varray>
  <i name="volumeweight">      0.01851852 </i>
 </kpoints>
 <parameters>
  <separator name="general" >
   <i type="string" name="SYSTEM">Mg_slab_in_a_box</i>
   <i type="logical" name="LCOMPAT"> F  </i>
  </separator>
  <separator name="electronic" >
   <i type="string" name="PREC">accura</i>
   <i name="ENMAX">    520.00000000</i>
   <i name="ENAUG">    605.39200000</i>
   <i name="EDIFF">      0.00000500</i>
   <i type="int" name="IALGO">    48</i>
   <i type="int" name="IWAVPR">    10</i>
   <i type="int" name="NBANDS">   102</i>
   <i name="NELECT">    138.00000000</i>
   <i type="int" name="TURBO">     0</i>
   <i type="int" name="IRESTART">     0</i>
   <i type="int" name="NREBOOT">     0</i>
   <i type="int" name="NMIN">     0</i>
   <i name="EREF">      0.00000000</i>
   <separator name="electronic smearing" >
    <i type="int" name="ISMEAR">    -5</i>
    <i name="SIGMA">      0.20000000</i>
    <i name="KSPACING">      0.50000000</i>
    <i type="logical" name="KGAMMA"> T  </i>
   </separator>
   <separator name="electronic projectors" >
    <i type="logical" name="LREAL"> T  </i>
    <v name="ROPT">     -0.00025000     -0.00025000     -0.00025000</v>
    <i type="int" name="LMAXPAW">  -100</i>
    <i type="int" name="LMAXMIX">     2</i>
    <i type="logical" name="NLSPLINE"> F  </i>
   </separator>
   <separator name="electronic startup" >
    <i type="int" name="ISTART">     0</i>
    <i type="int" name="ICHARG">     2</i>
    <i type="int" name="INIWAV">     1</i>
   </separator>
   <separator name="electronic spin" >
    <i type="int" name="ISPIN">     1</i>
    <i type="logical" name="LNONCOLLINEAR"> F  </i>
    <v name="MAGMOM">      1.00000000      1.00000000      1.00000000      1.00000000      1.00000000      1.00000000      1.00000000      1.00000000      1.00000000      1.00000000      1.00000000      1.00000000      1.00000000      1.00000000      1.00000000      1.00000000      1.00000000      1.00000000      1.00000000      1.00000000
      1.00000000      1.00000000      1.00000000      1.00000000      1.00000000      1.00000000      1.00000000      1.00000000      1.00000000      1.00000000      1.00000000      1.00000000      1.00000000      1.00000000      1.00000000      1.00000000      1.00000000      1.00000000      1.00000000      1.00000000
      1.00000000      1.00000000      1.00000000      1.00000000      1.00000000      1.00000000      1.00000000      1.00000000      1.00000000      1.00000000      1.00000000      1.00000000      1.00000000      1.00000000      1.00000000      1.00000000      1.00000000      1.00000000      1.00000000      1.00000000
      1.00000000      1.00000000      1.00000000</v>
    <i name="NUPDOWN">     -1.00000000</i>
    <i type="logical" name="LSORBIT"> F  </i>
    <v name="SAXIS">      0.00000000      0.00000000      1.00000000</v>
    <i type="logical" name="LSPIRAL"> F  </i>
    <v name="QSPIRAL">      0.00000000      0.00000000      0.00000000</v>
    <i type="logical" name="LZEROZ"> F  </i>
   </separator>
   <separator name="electronic exchange-correlation" >
    <i type="logical" name="LASPH"> T  </i>
    <i type="logical" name="LMETAGGA"> F  </i>
   </separator>
   <separator name="electronic convergence" >
    <i type="int" name="NELM">   300</i>
    <i type="int" name="NELMDL">   -12</i>
    <i type="int" name="NELMIN">     6</i>
    <i name="ENINI">    520.00000000</i>
    <separator name="electronic convergence detail" >
     <i type="logical" name="LDIAG"> T  </i>
     <i type="logical" name="LSUBROT"> F  </i>
     <i name="WEIMIN">      0.00000000</i>
     <i name="EBREAK">      0.00000001</i>
     <i name="DEPER">      0.30000000</i>
     <i type="int" name="NRMM">     4</i>
     <i name="TIME">      0.40000000</i>
    </separator>
   </separator>
   <separator name="electronic mixer" >
    <i name="AMIX">      0.40000000</i>
    <i name="BMIX">      1.00000000</i>
    <i name="AMIN">      0.10000000</i>
    <i name="AMIX_MAG">      1.60000000</i>
    <i name="BMIX_MAG">      1.00000000</i>
    <separator name="electronic mixer details" >
     <i type="int" name="IMIX">     4</i>
     <i type="logical" name="MIXFIRST"> F  </i>
     <i type="int" name="MAXMIX">   -45</i>
     <i name="WC">    100.00000000</i>
     <i type="int" name="INIMIX">     1</i>
     <i type="int" name="MIXPRE">     1</i>
     <i type="int" name="MREMOVE">     5</i>
    </separator>
   </separator>
   <separator name="electronic dipolcorrection" >
    <i type="logical" name="LDIPOL"> T  </i>
    <i type="logical" name="LMONO"> F  </i>
    <i type="int" name="IDIPOL">     3</i>
    <i name="EPSILON">      1.00000000</i>
    <v name="DIPOL">   -100.00000000   -100.00000000   -100.00000000</v>
    <i name="EFIELD">      0.00000000</i>
   </separator>
  </separator>
  <separator name="grids" >
   <i type="int" name="NGX">    72</i>
   <i type="int" name="NGY">    72</i>
   <i type="int" name="NGZ">   250</i>
   <i type="int" name="NGXF">   144</i>
   <i type="int" name="NGYF">   144</i>
   <i type="int" name="NGZF">   500</i>
   <i type="logical" name="ADDGRID"> F  </i>
  </separator>
  <separator name="ionic" >
   <i type="int" name="NSW">     0</i>
   <i type="int" name="IBRION">    -1</i>
   <i type="int" name="MDALGO">     0</i>
   <i type="int" name="ISIF">     2</i>
   <i name="PSTRESS">      0.00000000</i>
   <i name="EDIFFG">      0.00005000</i>
   <i type="int" name="NFREE">     0</i>
   <i name="POTIM">      0.50000000</i>
   <i name="SMASS">     -3.00000000</i>
   <i name="SCALEE">      1.00000000</i>
  </separator>
  <separator name="ionic md" >
   <i name="TEBEG">      0.00010000</i>
   <i name="TEEND">      0.00010000</i>
   <i type="int" name="NBLOCK">     1</i>
   <i type="int" name="KBLOCK">     1</i>
   <i type="int" name="NPACO">   256</i>
   <i name="APACO">     16.00000000</i>
  </separator>
  <separator name="symmetry" >
   <i type="int" name="ISYM">     2</i>
   <i name="SYMPREC">      0.00001000</i>
  </separator>
  <separator name="dos" >
   <i type="int" name="LORBIT">     0</i>
   <v name="RWIGS">     -1.00000000     -1.00000000     -1.00000000</v>
   <i type="int" name="NEDOS">   301</i>
   <i name="EMIN">     10.00000000</i>
   <i name="EMAX">    -10.00000000</i>
   <i name="EFERMI">      0.00000000</i>
  </separator>
  <separator name="writing" >
   <i type="int" name="NWRITE">     2</i>
   <i type="logical" name="LWAVE"> F  </i>
   <i type="logical" name="LDOWNSAMPLE"> F  </i>
   <i type="logical" name="LCHARG"> T  </i>
   <i type="logical" name="LPARD"> F  </i>
   <i type="logical" name="LVTOT"> F  </i>
   <i type="logical" name="LVHAR"> T  </i>
   <i type="logical" name="LELF"> F  </i>
   <i type="logical" name="LOPTICS"> F  </i>
   <v name="STM">      0.00000000      0.00000000      0.00000000      0.00000000      0.00000000      0.00000000      0.00000000</v>
  </separator>
  <separator name="performance" >
   <i type="int" name="NPAR">     3</i>
   <i type="int" name="NSIM">     4</i>
   <i type="int" name="NBLK">    -1</i>
   <i type="logical" name="LPLANE"> T  </i>
   <i type="logical" name="LSCALAPACK"> T  </i>
   <i type="logical" name="LSCAAWARE"> F  </i>
   <i type="logical" name="LSCALU"> F  </i>
   <i type="logical" name="LASYNC"> F  </i>
   <i type="logical" name="LORBITALREAL"> F  </i>
  </separator>
  <separator name="miscellaneous" >
   <i type="int" name="IDIOT">     3</i>
   <i type="int" name="ISPECIAL">     0</i>
   <i type="logical" name="LMUSIC"> F  </i>
   <v name="POMASS">     24.30500000     16.00000000      1.00000000</v>
   <v name="DARWINR">      0.00000000      0.00000000      0.00000000</v>
   <v name="DARWINV">      1.00000000      1.00000000      1.00000000</v>
   <i type="logical" name="LCORR"> T  </i>
  </separator>
  <i type="logical" name="GGA_COMPAT"> T  </i>
  <i type="logical" name="LBERRY"> F  </i>
  <i type="int" name="ICORELEVEL">     0</i>
  <i type="logical" name="LDAU"> F  </i>
  <i type="int" name="I_CONSTRAINED_M">     0</i>
  <separator name="electronic exchange-correlation" >
   <i type="string" name="GGA">BO</i>
   <i type="int" name="VOSKOWN">     0</i>
   <i type="logical" name="LHFCALC"> F  </i>
   <i type="string" name="PRECFOCK"></i>
   <i type="logical" name="LSYMGRAD"> F  </i>
   <i type="logical" name="LHFONE"> F  </i>
   <i type="logical" name="LRHFCALC"> F  </i>
   <i type="logical" name="LTHOMAS"> F  </i>
   <i type="logical" name="LMODELHF"> F  </i>
   <i name="ENCUT4O">     -1.00000000</i>
   <i type="int" name="EXXOEP">     0</i>
   <i type="int" name="FOURORBIT">     0</i>
   <i name="AEXX">      0.00000000</i>
   <i name="HFALPHA">      0.00000000</i>
   <i name="MCALPHA">      0.00000000</i>
   <i name="ALDAX">      1.00000000</i>
   <i name="AGGAX">      1.00000000</i>
   <i name="ALDAC">      1.00000000</i>
   <i name="AGGAC">      0.00000000</i>
   <i type="int" name="NKREDX">     1</i>
   <i type="int" name="NKREDY">     1</i>
   <i type="int" name="NKREDZ">     1</i>
   <i type="logical" name="SHIFTRED"> F  </i>
   <i type="logical" name="ODDONLY"> F  </i>
   <i type="logical" name="EVENONLY"> F  </i>
   <i type="int" name="LMAXFOCK">     0</i>
   <i type="int" name="NMAXFOCKAE">     0</i>
   <i type="logical" name="LFOCKAEDFT"> F  </i>
   <i name="HFSCREEN">      0.00000000</i>
   <i name="HFSCREENC">      0.00000000</i>
   <i type="int" name="NBANDSGWLOW">     0</i>
  </separator>
  <separator name="vdW DFT" >
   <i type="logical" name="LUSE_VDW"> T  </i>
   <i name="Zab_VDW">     -0.84910000</i>
   <i name="PARAM1">      0.18333333</i>
   <i name="PARAM2">      0.22000000</i>
   <i name="PARAM3">      0.00000000</i>
  </separator>
  <separator name="model GW" >
   <i type="int" name="MODEL_GW">     0</i>
   <i name="MODEL_EPS0">     24.57100561</i>
   <i name="MODEL_ALPHA">      1.00000000</i>
  </separator>
  <separator name="linear response parameters" >
   <i type="logical" name="LEPSILON"> F  </i>
   <i type="logical" name="LRPA"> F  </i>
   <i type="logical" name="LNABLA"> F  </i>
   <i type="logical" name="LVEL"> F  </i>
   <i type="int" name="KINTER">     0</i>
   <i name="CSHIFT">      0.10000000</i>
   <i name="OMEGAMAX">     -1.00000000</i>
   <i name="DEG_THRESHOLD">      0.00200000</i>
   <i name="RTIME">     -0.10000000</i>
   <i name="WPLASMAI">      0.00000000</i>
   <v name="DFIELD">      0.00000000      0.00000000      0.00000000</v>
   <v name="WPLASMA">      0.00000000      0.00000000      0.00000000      0.00000000      0.00000000      0.00000000      0.00000000      0.00000000      0.00000000</v>
  </separator>
  <separator name="orbital magnetization" >
   <i type="logical" name="NUCIND"> F  </i>
   <v name="MAGPOS">      0.00000000      0.00000000      0.00000000</v>
   <i type="logical" name="LNICSALL"> T  </i>
   <i type="logical" name="ORBITALMAG"> F  </i>
   <i type="logical" name="LMAGBLOCH"> F  </i>
   <i type="logical" name="LCHIMAG"> F  </i>
   <i type="logical" name="LGAUGE"> T  </i>
   <i type="int" name="MAGATOM">     0</i>
   <v name="MAGDIPOL">      0.00000000      0.00000000      0.00000000</v>
   <v name="AVECCONST">      0.00000000      0.00000000      0.00000000</v>
  </separator>
  <separator name="response functions" >
   <i type="logical" name="LADDER"> F  </i>
   <i type="logical" name="LRPAFORCE"> F  </i>
   <i type="logical" name="LFXC"> F  </i>
   <i type="logical" name="LHARTREE"> T  </i>
   <i type="int" name="IBSE">     0</i>
   <v type="int" name="KPOINT">    -1     0     0     0</v>
   <i type="logical" name="LTCTE"> F  </i>
   <i type="logical" name="LTETE"> F  </i>
   <i type="logical" name="LTRIPLET"> F  </i>
   <i type="logical" name="LFXCEPS"> F  </i>
   <i type="logical" name="LFXHEG"> F  </i>
   <i type="int" name="NATURALO">     2</i>
   <i type="logical" name="L2ORDER"> F  </i>
   <i type="logical" name="LMP2LT"> F  </i>
   <i type="logical" name="LUSEW"> F  </i>
   <i name="ENCUTGW">     -2.00000000</i>
   <i name="ENCUTGWSOFT">     -2.00000000</i>
   <i name="ENCUTLF">     -1.00000000</i>
   <i type="int" name="LMAXMP2">    -1</i>
   <i name="SCISSOR">      0.00000000</i>
   <i type="int" name="NOMEGA">     0</i>
   <i type="int" name="NOMEGAR">     0</i>
   <i type="int" name="NBANDSGW">    -1</i>
   <i type="int" name="NBANDSO">    -1</i>
   <i type="int" name="NBANDSV">    -1</i>
   <i type="int" name="NELM">   300</i>
   <i type="int" name="NELMHF">     1</i>
   <i type="int" name="DIM">     3</i>
   <i type="int" name="ANTIRES">     0</i>
   <i name="OMEGAMAX">    -30.00000000</i>
   <i name="OMEGAMIN">    -30.00000000</i>
   <i name="OMEGATL">   -200.00000000</i>
   <i type="int" name="OMEGAGRID">   140</i>
   <i name="CSHIFT">     -0.10000000</i>
   <i type="logical" name="SELFENERGY"> F  </i>
   <i type="logical" name="LSPECTRAL"> F  </i>
   <i type="logical" name="LSPECTRALGW"> F  </i>
   <i type="logical" name="LSINGLES"> F  </i>
   <i type="logical" name="LFERMIGW"> F  </i>
   <i type="logical" name="ODDONLYGW"> F  </i>
   <i type="logical" name="EVENONLYGW"> F  </i>
   <i type="int" name="NKREDLFX">     1</i>
   <i type="int" name="NKREDLFY">     1</i>
   <i type="int" name="NKREDLFZ">     1</i>
   <i type="int" name="MAXMEM">  2800</i>
   <i type="int" name="TELESCOPE">     0</i>
   <i type="int" name="TAUPAR">     1</i>
   <i type="int" name="OMEGAPAR">    -1</i>
   <i name="LAMBDA">      1.00000000</i>
  </separator>
  <separator name="External order field" >
   <i name="OFIELD_KAPPA">      0.00000000</i>
   <v name="OFIELD_K">      0.00000000      0.00000000      0.00000000</v>
   <i name="OFIELD_Q6_NEAR">      0.00000000</i>
   <i name="OFIELD_Q6_FAR">      0.00000000</i>
   <i name="OFIELD_A">      0.00000000</i>
  </separator>
 </parameters>
 <atominfo>
  <atoms>      63 </atoms>
  <types>       3 </types>
  <array name="atoms" >
   <dimension dim="1">ion</dimension>
   <field type="string">element</field>
   <field type="int">atomtype</field>
   <set>
    <rc><c>Mg</c><c>   1</c></rc>
    <rc><c>Mg</c><c>   1</c></rc>
    <rc><c>Mg</c><c>   1</c></rc>
    <rc><c>Mg</c><c>   1</c></rc>
    <rc><c>Mg</c><c>   1</c></rc>
    <rc><c>Mg</c><c>   1</c></rc>
    <rc><c>Mg</c><c>   1</c></rc>
    <rc><c>Mg</c><c>   1</c></rc>
    <rc><c>Mg</c><c>   1</c></rc>
    <rc><c>Mg</c><c>   1</c></rc>
    <rc><c>Mg</c><c>   1</c></rc>
    <rc><c>Mg</c><c>   1</c></rc>
    <rc><c>Mg</c><c>   1</c></rc>
    <rc><c>Mg</c><c>   1</c></rc>
    <rc><c>Mg</c><c>   1</c></rc>
    <rc><c>Mg</c><c>   1</c></rc>
    <rc><c>Mg</c><c>   1</c></rc>
    <rc><c>Mg</c><c>   1</c></rc>
    <rc><c>Mg</c><c>   1</c></rc>
    <rc><c>Mg</c><c>   1</c></rc>
    <rc><c>Mg</c><c>   1</c></rc>
    <rc><c>Mg</c><c>   1</c></rc>
    <rc><c>Mg</c><c>   1</c></rc>
    <rc><c>Mg</c><c>   1</c></rc>
    <rc><c>Mg</c><c>   1</c></rc>
    <rc><c>Mg</c><c>   1</c></rc>
    <rc><c>Mg</c><c>   1</c></rc>
    <rc><c>Mg</c><c>   1</c></rc>
    <rc><c>Mg</c><c>   1</c></rc>
    <rc><c>Mg</c><c>   1</c></rc>
    <rc><c>Mg</c><c>   1</c></rc>
    <rc><c>Mg</c><c>   1</c></rc>
    <rc><c>Mg</c><c>   1</c></rc>
    <rc><c>Mg</c><c>   1</c></rc>
    <rc><c>Mg</c><c>   1</c></rc>
    <rc><c>Mg</c><c>   1</c></rc>
    <rc><c>Mg</c><c>   1</c></rc>
    <rc><c>Mg</c><c>   1</c></rc>
    <rc><c>Mg</c><c>   1</c></rc>
    <rc><c>Mg</c><c>   1</c></rc>
    <rc><c>Mg</c><c>   1</c></rc>
    <rc><c>Mg</c><c>   1</c></rc>
    <rc><c>Mg</c><c>   1</c></rc>
    <rc><c>Mg</c><c>   1</c></rc>
    <rc><c>Mg</c><c>   1</c></rc>
    <rc><c>O </c><c>   2</c></rc>
    <rc><c>O </c><c>   2</c></rc>
    <rc><c>O </c><c>   2</c></rc>
    <rc><c>O </c><c>   2</c></rc>
    <rc><c>O </c><c>   2</c></rc>
    <rc><c>O </c><c>   2</c></rc>
    <rc><c>H </c><c>   3</c></rc>
    <rc><c>H </c><c>   3</c></rc>
    <rc><c>H </c><c>   3</c></rc>
    <rc><c>H </c><c>   3</c></rc>
    <rc><c>H </c><c>   3</c></rc>
    <rc><c>H </c><c>   3</c></rc>
    <rc><c>H </c><c>   3</c></rc>
    <rc><c>H </c><c>   3</c></rc>
    <rc><c>H </c><c>   3</c></rc>
    <rc><c>H </c><c>   3</c></rc>
    <rc><c>H </c><c>   3</c></rc>
    <rc><c>H </c><c>   3</c></rc>
   </set>
  </array>
  <array name="atomtypes" >
   <dimension dim="1">type</dimension>
   <field type="int">atomspertype</field>
   <field type="string">element</field>
   <field>mass</field>
   <field>valence</field>
   <field type="string">pseudopotential</field>
   <set>
    <rc><c>  45</c><c>Mg</c><c>     24.30500000</c><c>      2.00000000</c><c>  PAW_PBE Mg 13Apr2007                  </c></rc>
    <rc><c>   6</c><c>O </c><c>     16.00000000</c><c>      6.00000000</c><c>  PAW_PBE O 08Apr2002                   </c></rc>
    <rc><c>  12</c><c>H </c><c>      1.00000000</c><c>      1.00000000</c><c>  PAW_PBE H 15Jun2001                   </c></rc>
   </set>
  </array>
 </atominfo>
 <structure name="initialpos" >
  <crystal>
   <varray name="basis" >
    <v>       9.55575275       0.00000000       0.00000000 </v>
    <v>      -4.77787638       8.27552464       0.00000000 </v>
    <v>       0.00000000       0.00000000      32.62509537 </v>
   </varray>
   <i name="volume">   2579.95558872 </i>
   <varray name="rec_basis" >
    <v>       0.10464900       0.06041913       0.00000000 </v>
    <v>       0.00000000       0.12083826       0.00000000 </v>
    <v>       0.00000000       0.00000000       0.03065125 </v>
   </varray>
  </crystal>
  <varray name="positions" >
   <v>       0.00000000       0.00000000       0.00000000 </v>
   <v>       0.00127256       0.00156052       0.15936183 </v>
   <v>       0.00039582       0.00187462       0.33380355 </v>
   <v>       0.00000001       0.33333336       0.00000000 </v>
   <v>       0.00177963       0.33491977       0.15861501 </v>
   <v>       0.00211736       0.33706712       0.31325100 </v>
   <v>       0.00000002       0.66666672       0.00000000 </v>
   <v>       0.00116661       0.66767706       0.15857452 </v>
   <v>       0.00324451       0.67126822       0.31695189 </v>
   <v>       0.33333334       0.00000000       0.00000000 </v>
   <v>       0.33510143       0.00157316       0.15858508 </v>
   <v>       0.33547288       0.00351249       0.31308937 </v>
   <v>       0.33333335       0.33333336       0.00000000 </v>
   <v>       0.33452475       0.33443390       0.15856748 </v>
   <v>       0.33686844       0.33805741       0.31674180 </v>
   <v>       0.33333336       0.66666672       0.00000000 </v>
   <v>       0.33459854       0.66814654       0.15936190 </v>
   <v>       0.33305381       0.66811028       0.33371926 </v>
   <v>       0.66666668       0.00000000       0.00000000 </v>
   <v>       0.66790340       0.00106299       0.15856137 </v>
   <v>       0.67013380       0.00434791       0.31684649 </v>
   <v>       0.66666668       0.33333336       0.00000000 </v>
   <v>       0.66798747       0.33490660       0.15936380 </v>
   <v>       0.66616904       0.33425371       0.33366259 </v>
   <v>       0.66666670       0.66666672       0.00000000 </v>
   <v>       0.66847198       0.66825142       0.15863905 </v>
   <v>       0.66896865       0.67038537       0.31363854 </v>
   <v>       0.11111113       0.22222222       0.07982145 </v>
   <v>       0.11320987       0.22115501       0.23829788 </v>
   <v>       0.11111114       0.55555561       0.07982145 </v>
   <v>       0.11681488       0.56119145       0.23820346 </v>
   <v>       0.11111116       0.88888894       0.07982145 </v>
   <v>       0.11081747       0.89105741       0.23748211 </v>
   <v>       0.44444450       0.22222222       0.07982145 </v>
   <v>       0.45010571       0.22779254       0.23809776 </v>
   <v>       0.44444450       0.55555561       0.07982145 </v>
   <v>       0.44444948       0.55805189       0.23758967 </v>
   <v>       0.44444451       0.88888894       0.07982145 </v>
   <v>       0.44667309       0.88787237       0.23820954 </v>
   <v>       0.77777779       0.22222222       0.07982145 </v>
   <v>       0.77754781       0.22445532       0.23752153 </v>
   <v>       0.77777781       0.55555561       0.07982145 </v>
   <v>       0.77980735       0.55448961       0.23840051 </v>
   <v>       0.77777784       0.88888894       0.07982145 </v>
   <v>       0.78343022       0.89426209       0.23823845 </v>
   <v>       0.99724605       0.99925424       0.39997884 </v>
   <v>       0.25845674       0.92624328       0.41656057 </v>
   <v>       0.92099615       0.25734702       0.41659676 </v>
   <v>       0.65738562       0.32535261       0.40002583 </v>
   <v>       0.58261752       0.58352160       0.41711106 </v>
   <v>       0.32581758       0.66236318       0.40001481 </v>
   <v>       0.98529914       0.08516342       0.41350538 </v>
   <v>       0.08389148       0.98937647       0.41374721 </v>
   <v>       0.36161585       0.02840061       0.41550325 </v>
   <v>       0.23032567       0.89988979       0.38693648 </v>
   <v>       0.02304343       0.36063772       0.41572457 </v>
   <v>       0.89399127       0.23112975       0.38690925 </v>
   <v>       0.64500422       0.41089290       0.41364769 </v>
   <v>       0.74458003       0.31613444       0.41373765 </v>
   <v>       0.68557427       0.68591340       0.41648027 </v>
   <v>       0.55600665       0.55873777       0.38734889 </v>
   <v>       0.31650335       0.74997377       0.41347656 </v>
   <v>       0.41070292       0.64985680       0.41390613 </v>
  </varray>
  <varray name="selective"  type="logical" >
   <v type="logical" >  F  F  F </v>
   <v type="logical" >  T  T  T </v>
   <v type="logical" >  T  T  T </v>
   <v type="logical" >  F  F  F </v>
   <v type="logical" >  T  T  T </v>
   <v type="logical" >  T  T  T </v>
   <v type="logical" >  F  F  F </v>
   <v type="logical" >  T  T  T </v>
   <v type="logical" >  T  T  T </v>
   <v type="logical" >  F  F  F </v>
   <v type="logical" >  T  T  T </v>
   <v type="logical" >  T  T  T </v>
   <v type="logical" >  F  F  F </v>
   <v type="logical" >  T  T  T </v>
   <v type="logical" >  T  T  T </v>
   <v type="logical" >  F  F  F </v>
   <v type="logical" >  T  T  T </v>
   <v type="logical" >  T  T  T </v>
   <v type="logical" >  F  F  F </v>
   <v type="logical" >  T  T  T </v>
   <v type="logical" >  T  T  T </v>
   <v type="logical" >  F  F  F </v>
   <v type="logical" >  T  T  T </v>
   <v type="logical" >  T  T  T </v>
   <v type="logical" >  F  F  F </v>
   <v type="logical" >  T  T  T </v>
   <v type="logical" >  T  T  T </v>
   <v type="logical" >  F  F  F </v>
   <v type="logical" >  T  T  T </v>
   <v type="logical" >  F  F  F </v>
   <v type="logical" >  T  T  T </v>
   <v type="logical" >  F  F  F </v>
   <v type="logical" >  T  T  T </v>
   <v type="logical" >  F  F  F </v>
   <v type="logical" >  T  T  T </v>
   <v type="logical" >  F  F  F </v>
   <v type="logical" >  T  T  T </v>
   <v type="logical" >  F  F  F </v>
   <v type="logical" >  T  T  T </v>
   <v type="logical" >  F  F  F </v>
   <v type="logical" >  T  T  T </v>
   <v type="logical" >  F  F  F </v>
   <v type="logical" >  T  T  T </v>
   <v type="logical" >  F  F  F </v>
   <v type="logical" >  T  T  T </v>
   <v type="logical" >  T  T  T </v>
   <v type="logical" >  T  T  T </v>
   <v type="logical" >  T  T  T </v>
   <v type="logical" >  T  T  T </v>
   <v type="logical" >  T  T  T </v>
   <v type="logical" >  T  T  T </v>
   <v type="logical" >  T  T  T </v>
   <v type="logical" >  T  T  T </v>
   <v type="logical" >  T  T  T </v>
   <v type="logical" >  T  T  T </v>
   <v type="logical" >  T  T  T </v>
   <v type="logical" >  T  T  T </v>
   <v type="logical" >  T  T  T </v>
   <v type="logical" >  T  T  T </v>
   <v type="logical" >  T  T  T </v>
   <v type="logical" >  T  T  T </v>
   <v type="logical" >  T  T  T </v>
   <v type="logical" >  T  T  T </v>
  </varray>
  <nose>
   <v>      -3.00000000       0.00000000       0.00010000       0.00010000 </v>
  </nose>
 </structure>
 <calculation>
  <scstep>
   <time name="diag">    2.48    2.48</time>
   <time name="diis">    2.11    2.12</time>
   <time name="orth">    0.99    0.99</time>
   <time name="total">   14.73   14.86</time>
   <dipole>
    <v name="dipole">      0.00000000       0.00000000      -0.00040368 </v>
    <i name="Tr[quadrupol]">  -1916.12124229 </i>
    <i name="Echarged">      0.00000000 </i>
    <i name="Edipol_quadrupol">      0.00000000 </i>
    <i name="Eion">      0.00000000 </i>
   </dipole>
   <energy>
    <i name="alphaZ">     63.16540477 </i>
    <i name="ewald">  12259.55013437 </i>
    <i name="hartreedc"> -15487.93718879 </i>
    <i name="XCdc">  -2051.46056439 </i>
    <i name="pawpsdc">   5135.15659847 </i>
    <i name="pawaedc">  -2719.01140655 </i>
    <i name="eentropy">      0.00000000 </i>
    <i name="bandstr">    210.51001500 </i>
    <i name="atom">   3827.98814510 </i>
    <i name="e_fr_energy">   1237.96113799 </i>
    <i name="e_wo_entrp">   1237.96113799 </i>
    <i name="e_0_energy">   1237.96113799 </i>
   </energy>
  </scstep>
  <scstep>
   <time name="diag">    2.49    2.51</time>
   <time name="diis">    2.11    2.11</time>
   <time name="orth">    1.00    1.00</time>
   <time name="total">    5.60    5.62</time>
   <dipole>
    <v name="dipole">      0.00000000       0.00000000      -0.00040368 </v>
    <i name="Tr[quadrupol]">  -1916.12124229 </i>
    <i name="Echarged">      0.00000000 </i>
    <i name="Edipol_quadrupol">      0.00000000 </i>
    <i name="Eion">      0.00000000 </i>
   </dipole>
   <energy>
    <i name="e_fr_energy">    544.76911399 </i>
    <i name="e_wo_entrp">    544.76911399 </i>
    <i name="e_0_energy">    544.76911399 </i>
   </energy>
  </scstep>
  <scstep>
   <time name="diag">    2.47    2.49</time>
   <time name="diis">    2.10    2.10</time>
   <time name="orth">    0.87    0.87</time>
   <time name="total">    5.44    5.46</time>
   <dipole>
    <v name="dipole">      0.00000000       0.00000000      -0.00040368 </v>
    <i name="Tr[quadrupol]">  -1916.12124229 </i>
    <i name="Echarged">      0.00000000 </i>
    <i name="Edipol_quadrupol">      0.00000000 </i>
    <i name="Eion">      0.00000000 </i>
   </dipole>
   <energy>
    <i name="e_fr_energy">    310.25216691 </i>
    <i name="e_wo_entrp">    310.25216691 </i>
    <i name="e_0_energy">    310.25216691 </i>
   </energy>
  </scstep>
  <scstep>
   <time name="diag">    2.48    2.50</time>
   <time name="diis">    2.11    2.11</time>
   <time name="orth">    0.99    0.99</time>
   <time name="total">    5.59    5.61</time>
   <dipole>
    <v name="dipole">      0.00000000       0.00000000      -0.00040368 </v>
    <i name="Tr[quadrupol]">  -1916.12124229 </i>
    <i name="Echarged">      0.00000000 </i>
    <i name="Edipol_quadrupol">      0.00000000 </i>
    <i name="Eion">      0.00000000 </i>
   </dipole>
   <energy>
    <i name="e_fr_energy">    134.25494717 </i>
    <i name="e_wo_entrp">    134.25494717 </i>
    <i name="e_0_energy">    134.25494717 </i>
   </energy>
  </scstep>
  <scstep>
   <time name="diag">    2.38    2.40</time>
   <time name="diis">    2.10    2.10</time>
   <time name="orth">    0.96    0.97</time>
   <time name="total">    5.46    5.48</time>
   <dipole>
    <v name="dipole">      0.00000000       0.00000000      -0.00040368 </v>
    <i name="Tr[quadrupol]">  -1916.12124229 </i>
    <i name="Echarged">      0.00000000 </i>
    <i name="Edipol_quadrupol">      0.00000000 </i>
    <i name="Eion">      0.00000000 </i>
   </dipole>
   <energy>
    <i name="e_fr_energy">     17.67960547 </i>
    <i name="e_wo_entrp">     17.67960547 </i>
    <i name="e_0_energy">     17.67960547 </i>
   </energy>
  </scstep>
  <scstep>
   <time name="diag">    2.53    2.55</time>
   <time name="diis">    2.12    2.12</time>
   <time name="orth">    0.92    0.92</time>
   <time name="total">    5.57    5.59</time>
   <dipole>
    <v name="dipole">      0.00000000       0.00000000      -0.00040368 </v>
    <i name="Tr[quadrupol]">  -1916.12124229 </i>
    <i name="Echarged">      0.00000000 </i>
    <i name="Edipol_quadrupol">      0.00000000 </i>
    <i name="Eion">      0.00000000 </i>
   </dipole>
   <energy>
    <i name="e_fr_energy">    -43.81108973 </i>
    <i name="e_wo_entrp">    -43.81108973 </i>
    <i name="e_0_energy">    -43.81108973 </i>
   </energy>
  </scstep>
  <scstep>
   <time name="diag">    2.46    2.48</time>
   <time name="diis">    2.09    2.09</time>
   <time name="orth">    0.98    0.98</time>
   <time name="total">    5.54    5.57</time>
   <dipole>
    <v name="dipole">      0.00000000       0.00000000      -0.00040368 </v>
    <i name="Tr[quadrupol]">  -1916.12124229 </i>
    <i name="Echarged">      0.00000000 </i>
    <i name="Edipol_quadrupol">      0.00000000 </i>
    <i name="Eion">      0.00000000 </i>
   </dipole>
   <energy>
    <i name="e_fr_energy">    -69.01352905 </i>
    <i name="e_wo_entrp">    -69.01352905 </i>
    <i name="e_0_energy">    -69.01352905 </i>
   </energy>
  </scstep>
  <scstep>
   <time name="diag">    2.48    2.50</time>
   <time name="diis">    2.10    2.10</time>
   <time name="orth">    0.98    0.98</time>
   <time name="total">    5.56    5.58</time>
   <dipole>
    <v name="dipole">      0.00000000       0.00000000      -0.00040368 </v>
    <i name="Tr[quadrupol]">  -1916.12124229 </i>
    <i name="Echarged">      0.00000000 </i>
    <i name="Edipol_quadrupol">      0.00000000 </i>
    <i name="Eion">      0.00000000 </i>
   </dipole>
   <energy>
    <i name="e_fr_energy">    -75.78318332 </i>
    <i name="e_wo_entrp">    -75.78318332 </i>
    <i name="e_0_energy">    -75.78318332 </i>
   </energy>
  </scstep>
  <scstep>
   <time name="diag">    2.43    2.45</time>
   <time name="diis">    5.05    5.05</time>
   <time name="orth">    0.98    0.98</time>
   <time name="total">    8.47    8.49</time>
   <dipole>
    <v name="dipole">      0.00000000       0.00000000      -0.00040368 </v>
    <i name="Tr[quadrupol]">  -1916.12124229 </i>
    <i name="Echarged">      0.00000000 </i>
    <i name="Edipol_quadrupol">      0.00000000 </i>
    <i name="Eion">      0.00000000 </i>
   </dipole>
   <energy>
    <i name="e_fr_energy">    -78.04123060 </i>
    <i name="e_wo_entrp">    -78.04123060 </i>
    <i name="e_0_energy">    -78.04123060 </i>
   </energy>
  </scstep>
  <scstep>
   <time name="diag">    2.50    2.52</time>
   <time name="diis">    5.80    5.80</time>
   <time name="orth">    0.91    0.91</time>
   <time name="total">    9.22    9.24</time>
   <dipole>
    <v name="dipole">      0.00000000       0.00000000      -0.00040368 </v>
    <i name="Tr[quadrupol]">  -1916.12124229 </i>
    <i name="Echarged">      0.00000000 </i>
    <i name="Edipol_quadrupol">      0.00000000 </i>
    <i name="Eion">      0.00000000 </i>
   </dipole>
   <energy>
    <i name="e_fr_energy">    -78.33723279 </i>
    <i name="e_wo_entrp">    -78.33723279 </i>
    <i name="e_0_energy">    -78.33723279 </i>
   </energy>
  </scstep>
  <scstep>
   <time name="diag">    2.49    2.52</time>
   <time name="diis">    5.56    5.56</time>
   <time name="orth">    0.88    0.88</time>
   <time name="total">    8.94    8.96</time>
   <dipole>
    <v name="dipole">      0.00000000       0.00000000      -0.00040368 </v>
    <i name="Tr[quadrupol]">  -1916.12124229 </i>
    <i name="Echarged">      0.00000000 </i>
    <i name="Edipol_quadrupol">      0.00000000 </i>
    <i name="Eion">      0.00000000 </i>
   </dipole>
   <energy>
    <i name="e_fr_energy">    -78.34070100 </i>
    <i name="e_wo_entrp">    -78.34070100 </i>
    <i name="e_0_energy">    -78.34070100 </i>
   </energy>
  </scstep>
  <scstep>
   <time name="diag">    2.49    2.51</time>
   <time name="diis">    5.89    5.89</time>
   <time name="orth">    0.98    0.98</time>
   <time name="total">    9.87    9.89</time>
   <dipole>
    <v name="dipole">      0.00000000       0.00000000      -0.00040368 </v>
    <i name="Tr[quadrupol]">  -1916.12124229 </i>
    <i name="Echarged">      0.00000000 </i>
    <i name="Edipol_quadrupol">      0.00000000 </i>
    <i name="Eion">      0.00000000 </i>
   </dipole>
   <energy>
    <i name="e_fr_energy">    -78.34355181 </i>
    <i name="e_wo_entrp">    -78.34355181 </i>
    <i name="e_0_energy">    -78.34355181 </i>
   </energy>
  </scstep>
  <scstep>
   <time name="diag">    2.42    2.42</time>
   <time name="diis">    4.82    4.82</time>
   <time name="orth">    0.99    0.99</time>
   <time name="total">   17.70   17.72</time>
   <dipole>
    <v name="dipole">      0.00000000       0.00000000       0.18305584 </v>
    <i name="Tr[quadrupol]">  -1927.30571617 </i>
    <i name="Echarged">      0.00000000 </i>
    <i name="Edipol_quadrupol">      0.00000000 </i>
    <i name="Eion">      0.00000000 </i>
   </dipole>
   <energy>
    <i name="e_fr_energy">    -68.33140821 </i>
    <i name="e_wo_entrp">    -68.33140821 </i>
    <i name="e_0_energy">    -68.33140821 </i>
   </energy>
  </scstep>
  <scstep>
   <time name="diag">    2.48    2.48</time>
   <time name="diis">    5.15    5.15</time>
   <time name="orth">    0.94    0.94</time>
   <time name="total">   17.75   17.78</time>
   <dipole>
    <v name="dipole">      0.00000000       0.00000000      -0.92370138 </v>
    <i name="Tr[quadrupol]">  -1920.30961657 </i>
    <i name="Echarged">      0.00000000 </i>
    <i name="Edipol_quadrupol">      0.00000000 </i>
    <i name="Eion">      0.00000000 </i>
   </dipole>
   <energy>
    <i name="e_fr_energy">    -72.79778465 </i>
    <i name="e_wo_entrp">    -72.79778465 </i>
    <i name="e_0_energy">    -72.79778465 </i>
   </energy>
  </scstep>
  <scstep>
   <time name="diag">    2.46    2.46</time>
   <time name="diis">    4.95    4.95</time>
   <time name="orth">    0.88    0.89</time>
   <time name="total">   17.73   17.75</time>
   <dipole>
    <v name="dipole">      0.00000000       0.00000000       0.30152080 </v>
    <i name="Tr[quadrupol]">  -1928.61267092 </i>
    <i name="Echarged">      0.00000000 </i>
    <i name="Edipol_quadrupol">      0.00000000 </i>
    <i name="Eion">      0.00000000 </i>
   </dipole>
   <energy>
    <i name="e_fr_energy">    -69.39927915 </i>
    <i name="e_wo_entrp">    -69.39927915 </i>
    <i name="e_0_energy">    -69.39927915 </i>
   </energy>
  </scstep>
  <scstep>
   <time name="diag">    2.47    2.47</time>
   <time name="diis">    4.84    4.84</time>
   <time name="orth">    0.96    0.96</time>
   <time name="total">   17.73   17.75</time>
   <dipole>
    <v name="dipole">      0.00000000       0.00000000      -0.19676377 </v>
    <i name="Tr[quadrupol]">  -1930.39287797 </i>
    <i name="Echarged">      0.00000000 </i>
    <i name="Edipol_quadrupol">      0.00000000 </i>
    <i name="Eion">      0.00000000 </i>
   </dipole>
   <energy>
    <i name="e_fr_energy">    -67.91333072 </i>
    <i name="e_wo_entrp">    -67.91333072 </i>
    <i name="e_0_energy">    -67.91333072 </i>
   </energy>
  </scstep>
  <scstep>
   <time name="diag">    2.49    2.49</time>
   <time name="diis">    4.51    4.51</time>
   <time name="orth">    0.88    0.88</time>
   <time name="total">   17.41   17.43</time>
   <dipole>
    <v name="dipole">      0.00000000       0.00000000      -0.32294514 </v>
    <i name="Tr[quadrupol]">  -1930.15755840 </i>
    <i name="Echarged">      0.00000000 </i>
    <i name="Edipol_quadrupol">      0.00000000 </i>
    <i name="Eion">      0.00000000 </i>
   </dipole>
   <energy>
    <i name="e_fr_energy">    -67.86815391 </i>
    <i name="e_wo_entrp">    -67.86815391 </i>
    <i name="e_0_energy">    -67.86815391 </i>
   </energy>
  </scstep>
  <scstep>
   <time name="diag">    2.51    2.51</time>
   <time name="diis">    5.10    5.10</time>
   <time name="orth">    0.99    0.99</time>
   <time name="total">   18.09   18.11</time>
   <dipole>
    <v name="dipole">      0.00000000       0.00000000      -0.38575333 </v>
    <i name="Tr[quadrupol]">  -1930.79699780 </i>
    <i name="Echarged">      0.00000000 </i>
    <i name="Edipol_quadrupol">      0.00000000 </i>
    <i name="Eion">      0.00000000 </i>
   </dipole>
   <energy>
    <i name="e_fr_energy">    -67.85864996 </i>
    <i name="e_wo_entrp">    -67.85864996 </i>
    <i name="e_0_energy">    -67.85864996 </i>
   </energy>
  </scstep>
  <scstep>
   <time name="diag">    2.51    2.51</time>
   <time name="diis">    4.85    4.85</time>
   <time name="orth">    0.89    0.89</time>
   <time name="total">   17.76   17.78</time>
   <dipole>
    <v name="dipole">      0.00000000       0.00000000      -0.39794901 </v>
    <i name="Tr[quadrupol]">  -1931.60345110 </i>
    <i name="Echarged">      0.00000000 </i>
    <i name="Edipol_quadrupol">      0.00000000 </i>
    <i name="Eion">      0.00000000 </i>
   </dipole>
   <energy>
    <i name="e_fr_energy">    -67.85782381 </i>
    <i name="e_wo_entrp">    -67.85782381 </i>
    <i name="e_0_energy">    -67.85782381 </i>
   </energy>
  </scstep>
  <scstep>
   <time name="diag">    2.48    2.48</time>
   <time name="diis">    5.20    5.20</time>
   <time name="orth">    0.94    0.94</time>
   <time name="total">   18.09   18.12</time>
   <dipole>
    <v name="dipole">      0.00000000       0.00000000      -0.39980575 </v>
    <i name="Tr[quadrupol]">  -1932.24648446 </i>
    <i name="Echarged">      0.00000000 </i>
    <i name="Edipol_quadrupol">      0.00000000 </i>
    <i name="Eion">      0.00000000 </i>
   </dipole>
   <energy>
    <i name="e_fr_energy">    -67.85588518 </i>
    <i name="e_wo_entrp">    -67.85588518 </i>
    <i name="e_0_energy">    -67.85588518 </i>
   </energy>
  </scstep>
  <scstep>
   <time name="diag">    2.61    2.61</time>
   <time name="diis">    5.39    5.39</time>
   <time name="orth">    1.02    1.02</time>
   <time name="total">   18.72   18.74</time>
   <dipole>
    <v name="dipole">      0.00000000       0.00000000      -0.40121706 </v>
    <i name="Tr[quadrupol]">  -1932.61355349 </i>
    <i name="Echarged">      0.00000000 </i>
    <i name="Edipol_quadrupol">      0.00000000 </i>
    <i name="Eion">      0.00000000 </i>
   </dipole>
   <energy>
    <i name="e_fr_energy">    -67.85335380 </i>
    <i name="e_wo_entrp">    -67.85335380 </i>
    <i name="e_0_energy">    -67.85335380 </i>
   </energy>
  </scstep>
  <scstep>
   <time name="diag">    2.47    2.48</time>
   <time name="diis">    4.49    4.49</time>
   <time name="orth">    0.98    0.98</time>
   <time name="total">   17.80   17.82</time>
   <dipole>
    <v name="dipole">      0.00000000       0.00000000      -0.39493419 </v>
    <i name="Tr[quadrupol]">  -1933.03087546 </i>
    <i name="Echarged">      0.00000000 </i>
    <i name="Edipol_quadrupol">      0.00000000 </i>
    <i name="Eion">      0.00000000 </i>
   </dipole>
   <energy>
    <i name="e_fr_energy">    -67.84601020 </i>
    <i name="e_wo_entrp">    -67.84601020 </i>
    <i name="e_0_energy">    -67.84601020 </i>
   </energy>
  </scstep>
  <scstep>
   <time name="diag">    2.39    2.39</time>
   <time name="diis">    4.55    4.55</time>
   <time name="orth">    0.98    0.98</time>
   <time name="total">   17.55   17.57</time>
   <dipole>
    <v name="dipole">      0.00000000       0.00000000      -0.38261345 </v>
    <i name="Tr[quadrupol]">  -1933.32452739 </i>
    <i name="Echarged">      0.00000000 </i>
    <i name="Edipol_quadrupol">      0.00000000 </i>
    <i name="Eion">      0.00000000 </i>
   </dipole>
   <energy>
    <i name="e_fr_energy">    -67.84433097 </i>
    <i name="e_wo_entrp">    -67.84433097 </i>
    <i name="e_0_energy">    -67.84433097 </i>
   </energy>
  </scstep>
  <scstep>
   <time name="diag">    2.46    2.46</time>
   <time name="diis">    4.01    4.01</time>
   <time name="orth">    0.99    0.99</time>
   <time name="total">   17.06   17.08</time>
   <dipole>
    <v name="dipole">      0.00000000       0.00000000      -0.37673902 </v>
    <i name="Tr[quadrupol]">  -1933.43503459 </i>
    <i name="Echarged">      0.00000000 </i>
    <i name="Edipol_quadrupol">      0.00000000 </i>
    <i name="Eion">      0.00000000 </i>
   </dipole>
   <energy>
    <i name="e_fr_energy">    -67.84505525 </i>
    <i name="e_wo_entrp">    -67.84505525 </i>
    <i name="e_0_energy">    -67.84505525 </i>
   </energy>
  </scstep>
  <scstep>
   <time name="diag">    2.46    2.46</time>
   <time name="diis">    3.77    3.77</time>
   <time name="orth">    0.92    0.92</time>
   <time name="total">   16.70   16.72</time>
   <dipole>
    <v name="dipole">      0.00000000       0.00000000      -0.36876325 </v>
    <i name="Tr[quadrupol]">  -1933.54156330 </i>
    <i name="Echarged">      0.00000000 </i>
    <i name="Edipol_quadrupol">      0.00000000 </i>
    <i name="Eion">      0.00000000 </i>
   </dipole>
   <energy>
    <i name="e_fr_energy">    -67.84558698 </i>
    <i name="e_wo_entrp">    -67.84558698 </i>
    <i name="e_0_energy">    -67.84558698 </i>
   </energy>
  </scstep>
  <scstep>
   <time name="diag">    2.46    2.46</time>
   <time name="diis">    3.68    3.68</time>
   <time name="orth">    0.99    0.99</time>
   <time name="total">   16.61   16.63</time>
   <dipole>
    <v name="dipole">      0.00000000       0.00000000      -0.36493235 </v>
    <i name="Tr[quadrupol]">  -1933.59669769 </i>
    <i name="Echarged">      0.00000000 </i>
    <i name="Edipol_quadrupol">      0.00000000 </i>
    <i name="Eion">      0.00000000 </i>
   </dipole>
   <energy>
    <i name="e_fr_energy">    -67.84535355 </i>
    <i name="e_wo_entrp">    -67.84535355 </i>
    <i name="e_0_energy">    -67.84535355 </i>
   </energy>
  </scstep>
  <scstep>
   <time name="diag">    2.48    2.48</time>
   <time name="diis">    3.47    3.47</time>
   <time name="orth">    0.97    0.97</time>
   <time name="total">   16.45   16.47</time>
   <dipole>
    <v name="dipole">      0.00000000       0.00000000      -0.36231881 </v>
    <i name="Tr[quadrupol]">  -1933.65000734 </i>
    <i name="Echarged">      0.00000000 </i>
    <i name="Edipol_quadrupol">      0.00000000 </i>
    <i name="Eion">      0.00000000 </i>
   </dipole>
   <energy>
    <i name="e_fr_energy">    -67.84524061 </i>
    <i name="e_wo_entrp">    -67.84524061 </i>
    <i name="e_0_energy">    -67.84524061 </i>
   </energy>
  </scstep>
  <scstep>
   <time name="diag">    2.41    2.41</time>
   <time name="diis">    3.23    3.23</time>
   <time name="orth">    1.00    1.00</time>
   <time name="total">   16.23   16.25</time>
   <dipole>
    <v name="dipole">      0.00000000       0.00000000      -0.36132601 </v>
    <i name="Tr[quadrupol]">  -1933.69394121 </i>
    <i name="Echarged">      0.00000000 </i>
    <i name="Edipol_quadrupol">      0.00000000 </i>
    <i name="Eion">      0.00000000 </i>
   </dipole>
   <energy>
    <i name="e_fr_energy">    -67.84525945 </i>
    <i name="e_wo_entrp">    -67.84525945 </i>
    <i name="e_0_energy">    -67.84525945 </i>
   </energy>
  </scstep>
  <scstep>
   <time name="diag">    2.48    2.48</time>
   <time name="diis">    3.04    3.04</time>
   <time name="orth">    0.91    0.91</time>
   <time name="total">   15.96   15.98</time>
   <dipole>
    <v name="dipole">      0.00000000       0.00000000      -0.36109762 </v>
    <i name="Tr[quadrupol]">  -1933.69200202 </i>
    <i name="Echarged">      0.00000000 </i>
    <i name="Edipol_quadrupol">      0.00000000 </i>
    <i name="Eion">      0.00000000 </i>
   </dipole>
   <energy>
    <i name="e_fr_energy">    -67.84529650 </i>
    <i name="e_wo_entrp">    -67.84529650 </i>
    <i name="e_0_energy">    -67.84529650 </i>
   </energy>
  </scstep>
  <scstep>
   <time name="diag">    2.42    2.42</time>
   <time name="diis">    2.92    2.92</time>
   <time name="orth">    0.99    0.99</time>
   <time name="total">   15.96   15.98</time>
   <dipole>
    <v name="dipole">      0.00000000       0.00000000      -0.36106999 </v>
    <i name="Tr[quadrupol]">  -1933.97344020 </i>
    <i name="Echarged">      0.00000000 </i>
    <i name="Edipol_quadrupol">      0.00000000 </i>
    <i name="Eion">      0.00000000 </i>
   </dipole>
   <energy>
    <i name="e_fr_energy">    -67.84535562 </i>
    <i name="e_wo_entrp">    -67.84535562 </i>
    <i name="e_0_energy">    -67.84535562 </i>
   </energy>
  </scstep>
  <scstep>
   <time name="diag">    2.49    2.49</time>
   <time name="diis">    2.86    2.86</time>
   <time name="orth">    0.89    0.89</time>
   <time name="total">   15.23   15.25</time>
   <dipole>
    <v name="dipole">      0.00000000       0.00000000      -0.36142480 </v>
    <i name="Tr[quadrupol]">  -1934.06641828 </i>
    <i name="Echarged">      0.00000000 </i>
    <i name="Edipol_quadrupol">      0.00000000 </i>
    <i name="Eion">      0.00000000 </i>
   </dipole>
   <energy>
    <i name="alphaZ">     64.76107748 </i>
    <i name="ewald">  12259.55013437 </i>
    <i name="hartreedc"> -15714.03122387 </i>
    <i name="XCdc">  -2035.75006139 </i>
    <i name="pawpsdc">   5985.87027641 </i>
    <i name="pawaedc">  -3572.13199976 </i>
    <i name="eentropy">      0.00000000 </i>
    <i name="bandstr">   -884.10170420 </i>
    <i name="atom">   3827.98814510 </i>
    <i name="e_fr_energy">    -67.84535586 </i>
    <i name="e_wo_entrp">    -67.84535586 </i>
    <i name="e_0_energy">    -67.84535586 </i>
   </energy>
  </scstep>
  <structure>
   <crystal>
    <varray name="basis" >
     <v>       9.55575275       0.00000000       0.00000000 </v>
     <v>      -4.77787638       8.27552464       0.00000000 </v>
     <v>       0.00000000       0.00000000      32.62509537 </v>
    </varray>
    <i name="volume">   2579.95558872 </i>
    <varray name="rec_basis" >
     <v>       0.10464900       0.06041913       0.00000000 </v>
     <v>       0.00000000       0.12083826       0.00000000 </v>
     <v>       0.00000000       0.00000000       0.03065125 </v>
    </varray>
   </crystal>
   <varray name="positions" >
    <v>       0.00000000       0.00000000       0.00000000 </v>
    <v>       0.00127256       0.00156052       0.15936183 </v>
    <v>       0.00039582       0.00187462       0.33380355 </v>
    <v>       0.00000001       0.33333336       0.00000000 </v>
    <v>       0.00177963       0.33491977       0.15861501 </v>
    <v>       0.00211736       0.33706712       0.31325100 </v>
    <v>       0.00000002       0.66666672       0.00000000 </v>
    <v>       0.00116661       0.66767706       0.15857452 </v>
    <v>       0.00324451       0.67126822       0.31695189 </v>
    <v>       0.33333334       0.00000000       0.00000000 </v>
    <v>       0.33510143       0.00157316       0.15858508 </v>
    <v>       0.33547288       0.00351249       0.31308937 </v>
    <v>       0.33333335       0.33333336       0.00000000 </v>
    <v>       0.33452475       0.33443390       0.15856748 </v>
    <v>       0.33686844       0.33805741       0.31674180 </v>
    <v>       0.33333336       0.66666672       0.00000000 </v>
    <v>       0.33459854       0.66814654       0.15936190 </v>
    <v>       0.33305381       0.66811028       0.33371926 </v>
    <v>       0.66666668       0.00000000       0.00000000 </v>
    <v>       0.66790340       0.00106299       0.15856137 </v>
    <v>       0.67013380       0.00434791       0.31684649 </v>
    <v>       0.66666668       0.33333336       0.00000000 </v>
    <v>       0.66798747       0.33490660       0.15936380 </v>
    <v>       0.66616904       0.33425371       0.33366259 </v>
    <v>       0.66666670       0.66666672       0.00000000 </v>
    <v>       0.66847198       0.66825142       0.15863905 </v>
    <v>       0.66896865       0.67038537       0.31363854 </v>
    <v>       0.11111113       0.22222222       0.07982145 </v>
    <v>       0.11320987       0.22115501       0.23829788 </v>
    <v>       0.11111114       0.55555561       0.07982145 </v>
    <v>       0.11681488       0.56119145       0.23820346 </v>
    <v>       0.11111116       0.88888894       0.07982145 </v>
    <v>       0.11081747       0.89105741       0.23748211 </v>
    <v>       0.44444450       0.22222222       0.07982145 </v>
    <v>       0.45010571       0.22779254       0.23809776 </v>
    <v>       0.44444450       0.55555561       0.07982145 </v>
    <v>       0.44444948       0.55805189       0.23758967 </v>
    <v>       0.44444451       0.88888894       0.07982145 </v>
    <v>       0.44667309       0.88787237       0.23820954 </v>
    <v>       0.77777779       0.22222222       0.07982145 </v>
    <v>       0.77754781       0.22445532       0.23752153 </v>
    <v>       0.77777781       0.55555561       0.07982145 </v>
    <v>       0.77980735       0.55448961       0.23840051 </v>
    <v>       0.77777784       0.88888894       0.07982145 </v>
    <v>       0.78343022       0.89426209       0.23823845 </v>
    <v>       0.99724605       0.99925424       0.39997884 </v>
    <v>       0.25845674       0.92624328       0.41656057 </v>
    <v>       0.92099615       0.25734702       0.41659676 </v>
    <v>       0.65738562       0.32535261       0.40002583 </v>
    <v>       0.58261752       0.58352160       0.41711106 </v>
    <v>       0.32581758       0.66236318       0.40001481 </v>
    <v>       0.98529914       0.08516342       0.41350538 </v>
    <v>       0.08389148       0.98937647       0.41374721 </v>
    <v>       0.36161585       0.02840061       0.41550325 </v>
    <v>       0.23032567       0.89988979       0.38693648 </v>
    <v>       0.02304343       0.36063772       0.41572457 </v>
    <v>       0.89399127       0.23112975       0.38690925 </v>
    <v>       0.64500422       0.41089290       0.41364769 </v>
    <v>       0.74458003       0.31613444       0.41373765 </v>
    <v>       0.68557427       0.68591340       0.41648027 </v>
    <v>       0.55600665       0.55873777       0.38734889 </v>
    <v>       0.31650335       0.74997377       0.41347656 </v>
    <v>       0.41070292       0.64985680       0.41390613 </v>
   </varray>
  </structure>
  <varray name="forces" >
   <v>       0.01841370      -0.00335674       0.01670581 </v>
   <v>       0.00280883       0.00546706      -0.00679641 </v>
   <v>       0.01974377      -0.00847211      -0.05813204 </v>
   <v>      -0.02237477      -0.01505333       0.00013136 </v>
   <v>      -0.00169827      -0.00142831      -0.01462305 </v>
   <v>      -0.02938922      -0.02199755      -0.02233627 </v>
   <v>       0.01037473       0.03962578      -0.00165845 </v>
   <v>       0.00293778       0.01259047      -0.00909976 </v>
   <v>       0.01285668       0.04938825      -0.02557218 </v>
   <v>      -0.02988059      -0.00877223      -0.01113399 </v>
   <v>      -0.00411540       0.00329774      -0.00981013 </v>
   <v>      -0.03304817      -0.02304504      -0.01332762 </v>
   <v>       0.00665825       0.02102787      -0.00347174 </v>
   <v>       0.00056251      -0.00274644      -0.00966393 </v>
   <v>       0.01077186       0.03169116      -0.01943392 </v>
   <v>       0.00708961      -0.00319073       0.02239393 </v>
   <v>      -0.00798277       0.00860088      -0.00674529 </v>
   <v>       0.00686475      -0.00272568      -0.05921970 </v>
   <v>       0.00157394       0.03378406      -0.00298481 </v>
   <v>      -0.00736141       0.00891918      -0.00983217 </v>
   <v>       0.00190267       0.04181210      -0.02228800 </v>
   <v>       0.00673922      -0.01563565       0.02432822 </v>
   <v>      -0.00650082      -0.00501817      -0.00872940 </v>
   <v>       0.00756444      -0.01768173      -0.05659866 </v>
   <v>      -0.02647478      -0.00947546      -0.00002991 </v>
   <v>      -0.00255899       0.00278147      -0.01543843 </v>
   <v>      -0.02869919      -0.01911312      -0.02463439 </v>
   <v>       0.02489897      -0.03520236       0.08117309 </v>
   <v>       0.01553938      -0.02296254      -0.03587798 </v>
   <v>       0.02590697       0.02891879       0.08083737 </v>
   <v>       0.00708081       0.02326914      -0.03454624 </v>
   <v>      -0.01966882       0.00621807       0.05206816 </v>
   <v>       0.00868696      -0.00838460      -0.02827524 </v>
   <v>       0.02404176       0.01528145       0.08293916 </v>
   <v>       0.00149939       0.00325317      -0.03783765 </v>
   <v>      -0.02293365       0.00177647       0.05192546 </v>
   <v>      -0.00233938      -0.01656356      -0.03058785 </v>
   <v>       0.01510555      -0.02547599       0.08259890 </v>
   <v>      -0.00143730      -0.01393751      -0.03698841 </v>
   <v>      -0.02645975      -0.00442180       0.05129834 </v>
   <v>      -0.00512131      -0.01970319      -0.03090733 </v>
   <v>       0.01936723      -0.02694329       0.08110668 </v>
   <v>       0.00793181      -0.01848612      -0.03410383 </v>
   <v>       0.02789608       0.02450342       0.08191289 </v>
   <v>       0.00690724       0.01576836      -0.03378893 </v>
   <v>      -0.01512414      -0.00462260       0.01140768 </v>
   <v>      -0.00118759      -0.00721738       0.05813955 </v>
   <v>      -0.00001536       0.00538114       0.03934928 </v>
   <v>      -0.00505045       0.00000302       0.01312388 </v>
   <v>       0.00375121       0.00587789       0.03980371 </v>
   <v>      -0.00119913      -0.00990140       0.01330341 </v>
   <v>      -0.00284249       0.00271895      -0.00498453 </v>
   <v>       0.01213040      -0.00198792      -0.01008308 </v>
   <v>       0.00493798       0.00974779      -0.01263469 </v>
   <v>      -0.00711781      -0.00985800      -0.03918830 </v>
   <v>       0.00315034       0.00425543      -0.00641663 </v>
   <v>      -0.00701124      -0.01653949      -0.03157537 </v>
   <v>      -0.00294024       0.00070785      -0.00598183 </v>
   <v>       0.00390811      -0.00262079      -0.00809036 </v>
   <v>       0.00278338       0.00415082      -0.00630223 </v>
   <v>      -0.00754498      -0.01448690      -0.03064740 </v>
   <v>      -0.00745023       0.00819013      -0.00661931 </v>
   <v>       0.00314193      -0.00198016      -0.00754944 </v>
  </varray>
  <varray name="stress" >
   <v>      -4.73593378      -0.91986996      -0.16266421 </v>
   <v>      -0.91986994      -6.80352649      -0.19764412 </v>
   <v>      -0.16266443      -0.19764451      -2.80592318 </v>
  </varray>
  <energy>
   <i name="e_fr_energy">    -67.84535586 </i>
   <i name="e_wo_entrp">    -67.84535586 </i>
   <i name="e_0_energy">      0.00000000 </i>
  </energy>
  <time name="totalsc">  451.29  452.70</time>
  <eigenvalues>
   <array>
    <dimension dim="1">band</dimension>
    <dimension dim="2">kpoint</dimension>
    <dimension dim="3">spin</dimension>
    <field>eigene</field>
    <field>occ</field>
    <set>
     <set comment="spin 1">
      <set comment="kpoint 1">
       <r>  -23.8252    1.0000 </r>
       <r>  -23.7269    1.0000 </r>
       <r>  -23.7212    1.0000 </r>
       <r>  -23.4496    1.0000 </r>
       <r>  -23.4252    1.0000 </r>
       <r>  -23.3220    1.0000 </r>
       <r>  -11.8604    1.0000 </r>
       <r>  -11.8556    1.0000 </r>
       <r>  -11.8315    1.0000 </r>
       <r>  -11.2204    1.0000 </r>
       <r>  -11.0858    1.0000 </r>
       <r>  -11.0620    1.0000 </r>
       <r>   -8.6763    1.0000 </r>
       <r>   -8.6088    1.0000 </r>
       <r>   -8.6051    1.0000 </r>
       <r>   -7.9393    1.0000 </r>
       <r>   -7.9173    1.0000 </r>
       <r>   -7.8047    1.0000 </r>
       <r>   -7.3721    1.0000 </r>
       <r>   -6.8015    1.0000 </r>
       <r>   -6.4728    1.0000 </r>
       <r>   -6.4498    1.0000 </r>
       <r>   -6.3125    1.0000 </r>
       <r>   -5.9262    1.0000 </r>
       <r>   -5.9066    1.0000 </r>
       <r>   -5.8754    1.0000 </r>
       <r>   -5.8506    1.0000 </r>
       <r>   -5.2201    1.0000 </r>
       <r>   -5.2156    1.0000 </r>
       <r>   -5.2145    1.0000 </r>
       <r>   -5.2130    1.0000 </r>
       <r>   -5.1791    1.0000 </r>
       <r>   -5.1772    1.0000 </r>
       <r>   -4.7421    1.0000 </r>
       <r>   -4.6925    1.0000 </r>
       <r>   -4.6860    1.0000 </r>
       <r>   -4.6789    1.0000 </r>
       <r>   -4.6783    1.0000 </r>
       <r>   -4.5590    1.0000 </r>
       <r>   -4.5563    1.0000 </r>
       <r>   -3.8246    1.0000 </r>
       <r>   -3.8203    1.0000 </r>
       <r>   -3.8065    1.0000 </r>
       <r>   -3.8032    1.0000 </r>
       <r>   -3.6647    1.0000 </r>
       <r>   -3.6618    1.0000 </r>
       <r>   -3.2655    1.0000 </r>
       <r>   -2.7001    1.0000 </r>
       <r>   -2.6956    1.0000 </r>
       <r>   -2.6503    1.0000 </r>
       <r>   -2.6449    1.0000 </r>
       <r>   -2.5961    1.0000 </r>
       <r>   -2.5927    1.0000 </r>
       <r>   -1.8238    1.0000 </r>
       <r>   -1.3225    1.0000 </r>
       <r>   -1.3152    1.0000 </r>
       <r>   -1.2331    1.0000 </r>
       <r>   -1.2301    1.0000 </r>
       <r>   -1.0939    1.0000 </r>
       <r>   -1.0738    1.0000 </r>
       <r>   -1.0710    1.0000 </r>
       <r>   -1.0418    1.0000 </r>
       <r>   -1.0380    1.0000 </r>
       <r>   -1.0348    1.0000 </r>
       <r>   -0.9966    1.0000 </r>
       <r>   -0.9928    1.0000 </r>
       <r>   -0.7312    1.0000 </r>
       <r>   -0.6209    0.6109 </r>
       <r>   -0.5411    0.0000 </r>
       <r>   -0.5160    0.0000 </r>
       <r>   -0.3993    0.0000 </r>
       <r>   -0.3886    0.0000 </r>
       <r>   -0.1873    0.0000 </r>
       <r>   -0.0974    0.0000 </r>
       <r>   -0.0732    0.0000 </r>
       <r>    0.0880    0.0000 </r>
       <r>    0.0962    0.0000 </r>
       <r>    0.1873    0.0000 </r>
       <r>    0.1900    0.0000 </r>
       <r>    0.2688    0.0000 </r>
       <r>    0.3129    0.0000 </r>
       <r>    0.4539    0.0000 </r>
       <r>    0.4567    0.0000 </r>
       <r>    0.7725    0.0000 </r>
       <r>    1.0432    0.0000 </r>
       <r>    1.0444    0.0000 </r>
       <r>    1.0609    0.0000 </r>
       <r>    1.0613    0.0000 </r>
       <r>    1.0669    0.0000 </r>
       <r>    1.0676    0.0000 </r>
       <r>    1.0904    0.0000 </r>
       <r>    1.2007    0.0000 </r>
       <r>    1.2607    0.0000 </r>
       <r>    1.3286    0.0000 </r>
       <r>    1.5622    0.0000 </r>
       <r>    1.5943    0.0000 </r>
       <r>    1.6035    0.0000 </r>
       <r>    1.6127    0.0000 </r>
       <r>    1.6160    0.0000 </r>
       <r>    1.6241    0.0000 </r>
       <r>    1.6429    0.0000 </r>
       <r>    1.7318    0.0000 </r>
      </set>
      <set comment="kpoint 2">
       <r>  -23.8113    1.0000 </r>
       <r>  -23.7703    1.0000 </r>
       <r>  -23.6892    1.0000 </r>
       <r>  -23.4769    1.0000 </r>
       <r>  -23.3856    1.0000 </r>
       <r>  -23.3369    1.0000 </r>
       <r>  -11.8605    1.0000 </r>
       <r>  -11.8497    1.0000 </r>
       <r>  -11.8366    1.0000 </r>
       <r>  -11.2010    1.0000 </r>
       <r>  -11.1404    1.0000 </r>
       <r>  -11.0273    1.0000 </r>
       <r>   -8.6549    1.0000 </r>
       <r>   -8.6219    1.0000 </r>
       <r>   -8.6160    1.0000 </r>
       <r>   -7.9244    1.0000 </r>
       <r>   -7.8989    1.0000 </r>
       <r>   -7.8347    1.0000 </r>
       <r>   -7.1296    1.0000 </r>
       <r>   -6.5737    1.0000 </r>
       <r>   -6.5105    1.0000 </r>
       <r>   -6.4360    1.0000 </r>
       <r>   -6.3674    1.0000 </r>
       <r>   -6.3170    1.0000 </r>
       <r>   -5.9343    1.0000 </r>
       <r>   -5.8958    1.0000 </r>
       <r>   -5.8610    1.0000 </r>
       <r>   -5.8204    1.0000 </r>
       <r>   -5.6934    1.0000 </r>
       <r>   -5.6665    1.0000 </r>
       <r>   -5.6438    1.0000 </r>
       <r>   -5.1586    1.0000 </r>
       <r>   -5.0711    1.0000 </r>
       <r>   -4.9452    1.0000 </r>
       <r>   -4.5052    1.0000 </r>
       <r>   -4.2856    1.0000 </r>
       <r>   -4.2675    1.0000 </r>
       <r>   -4.2397    1.0000 </r>
       <r>   -4.1885    1.0000 </r>
       <r>   -3.8078    1.0000 </r>
       <r>   -3.7429    1.0000 </r>
       <r>   -3.6454    1.0000 </r>
       <r>   -3.5474    1.0000 </r>
       <r>   -3.1427    1.0000 </r>
       <r>   -3.0831    1.0000 </r>
       <r>   -3.0288    1.0000 </r>
       <r>   -2.9827    1.0000 </r>
       <r>   -2.8885    1.0000 </r>
       <r>   -2.8650    1.0000 </r>
       <r>   -2.8369    1.0000 </r>
       <r>   -2.7893    1.0000 </r>
       <r>   -2.3552    1.0000 </r>
       <r>   -2.3267    1.0000 </r>
       <r>   -2.2699    1.0000 </r>
       <r>   -2.1658    1.0000 </r>
       <r>   -1.7808    1.0000 </r>
       <r>   -1.7312    1.0000 </r>
       <r>   -1.7194    1.0000 </r>
       <r>   -1.5935    1.0000 </r>
       <r>   -1.5666    1.0000 </r>
       <r>   -1.5237    1.0000 </r>
       <r>   -1.4902    1.0000 </r>
       <r>   -1.4475    1.0000 </r>
       <r>   -1.2733    1.0000 </r>
       <r>   -0.9103    1.0000 </r>
       <r>   -0.8234    1.0000 </r>
       <r>   -0.8150    1.0000 </r>
       <r>   -0.6354    1.0042 </r>
       <r>   -0.6234    0.5040 </r>
       <r>   -0.6148    0.1401 </r>
       <r>   -0.5936   -0.0175 </r>
       <r>   -0.4727   -0.0214 </r>
       <r>   -0.3240    0.0000 </r>
       <r>   -0.1073    0.0000 </r>
       <r>   -0.0072    0.0000 </r>
       <r>    0.0210    0.0000 </r>
       <r>    0.0557    0.0000 </r>
       <r>    0.1229    0.0000 </r>
       <r>    0.2030    0.0000 </r>
       <r>    0.2722    0.0000 </r>
       <r>    0.5140    0.0000 </r>
       <r>    0.5270    0.0000 </r>
       <r>    0.5589    0.0000 </r>
       <r>    0.5978    0.0000 </r>
       <r>    0.6204    0.0000 </r>
       <r>    0.8230    0.0000 </r>
       <r>    0.8636    0.0000 </r>
       <r>    0.8883    0.0000 </r>
       <r>    1.0297    0.0000 </r>
       <r>    1.0391    0.0000 </r>
       <r>    1.0406    0.0000 </r>
       <r>    1.2546    0.0000 </r>
       <r>    1.3300    0.0000 </r>
       <r>    1.3347    0.0000 </r>
       <r>    1.4085    0.0000 </r>
       <r>    1.4128    0.0000 </r>
       <r>    1.4557    0.0000 </r>
       <r>    1.5254    0.0000 </r>
       <r>    1.5442    0.0000 </r>
       <r>    1.6593    0.0000 </r>
       <r>    1.7804    0.0000 </r>
       <r>    2.1975    0.0000 </r>
      </set>
      <set comment="kpoint 3">
       <r>  -23.8113    1.0000 </r>
       <r>  -23.7702    1.0000 </r>
       <r>  -23.6894    1.0000 </r>
       <r>  -23.4767    1.0000 </r>
       <r>  -23.3855    1.0000 </r>
       <r>  -23.3371    1.0000 </r>
       <r>  -11.8606    1.0000 </r>
       <r>  -11.8497    1.0000 </r>
       <r>  -11.8365    1.0000 </r>
       <r>  -11.2010    1.0000 </r>
       <r>  -11.1404    1.0000 </r>
       <r>  -11.0273    1.0000 </r>
       <r>   -8.6546    1.0000 </r>
       <r>   -8.6234    1.0000 </r>
       <r>   -8.6150    1.0000 </r>
       <r>   -7.9242    1.0000 </r>
       <r>   -7.8984    1.0000 </r>
       <r>   -7.8353    1.0000 </r>
       <r>   -7.1296    1.0000 </r>
       <r>   -6.5737    1.0000 </r>
       <r>   -6.5106    1.0000 </r>
       <r>   -6.4359    1.0000 </r>
       <r>   -6.3673    1.0000 </r>
       <r>   -6.3170    1.0000 </r>
       <r>   -5.9349    1.0000 </r>
       <r>   -5.8950    1.0000 </r>
       <r>   -5.8607    1.0000 </r>
       <r>   -5.8210    1.0000 </r>
       <r>   -5.6944    1.0000 </r>
       <r>   -5.6656    1.0000 </r>
       <r>   -5.6439    1.0000 </r>
       <r>   -5.1600    1.0000 </r>
       <r>   -5.0695    1.0000 </r>
       <r>   -4.9451    1.0000 </r>
       <r>   -4.5052    1.0000 </r>
       <r>   -4.2867    1.0000 </r>
       <r>   -4.2685    1.0000 </r>
       <r>   -4.2390    1.0000 </r>
       <r>   -4.1870    1.0000 </r>
       <r>   -3.8077    1.0000 </r>
       <r>   -3.7442    1.0000 </r>
       <r>   -3.6442    1.0000 </r>
       <r>   -3.5476    1.0000 </r>
       <r>   -3.1436    1.0000 </r>
       <r>   -3.0821    1.0000 </r>
       <r>   -3.0287    1.0000 </r>
       <r>   -2.9826    1.0000 </r>
       <r>   -2.8897    1.0000 </r>
       <r>   -2.8660    1.0000 </r>
       <r>   -2.8362    1.0000 </r>
       <r>   -2.7880    1.0000 </r>
       <r>   -2.3567    1.0000 </r>
       <r>   -2.3266    1.0000 </r>
       <r>   -2.2685    1.0000 </r>
       <r>   -2.1664    1.0000 </r>
       <r>   -1.7821    1.0000 </r>
       <r>   -1.7319    1.0000 </r>
       <r>   -1.7178    1.0000 </r>
       <r>   -1.5934    1.0000 </r>
       <r>   -1.5654    1.0000 </r>
       <r>   -1.5254    1.0000 </r>
       <r>   -1.4911    1.0000 </r>
       <r>   -1.4456    1.0000 </r>
       <r>   -1.2771    1.0000 </r>
       <r>   -0.9102    1.0000 </r>
       <r>   -0.8221    1.0000 </r>
       <r>   -0.8149    1.0000 </r>
       <r>   -0.6367    1.0103 </r>
       <r>   -0.6186    0.4889 </r>
       <r>   -0.6109    0.0922 </r>
       <r>   -0.5931   -0.0187 </r>
       <r>   -0.4710   -0.0214 </r>
       <r>   -0.3253    0.0000 </r>
       <r>   -0.1047    0.0000 </r>
       <r>   -0.0042    0.0000 </r>
       <r>    0.0175    0.0000 </r>
       <r>    0.0540    0.0000 </r>
       <r>    0.1230    0.0000 </r>
       <r>    0.2002    0.0000 </r>
       <r>    0.2714    0.0000 </r>
       <r>    0.5145    0.0000 </r>
       <r>    0.5233    0.0000 </r>
       <r>    0.5590    0.0000 </r>
       <r>    0.5915    0.0000 </r>
       <r>    0.6226    0.0000 </r>
       <r>    0.8239    0.0000 </r>
       <r>    0.8571    0.0000 </r>
       <r>    0.8931    0.0000 </r>
       <r>    1.0296    0.0000 </r>
       <r>    1.0389    0.0000 </r>
       <r>    1.0453    0.0000 </r>
       <r>    1.2554    0.0000 </r>
       <r>    1.3285    0.0000 </r>
       <r>    1.3340    0.0000 </r>
       <r>    1.4007    0.0000 </r>
       <r>    1.4135    0.0000 </r>
       <r>    1.4610    0.0000 </r>
       <r>    1.5257    0.0000 </r>
       <r>    1.5528    0.0000 </r>
       <r>    1.6594    0.0000 </r>
       <r>    1.7858    0.0000 </r>
       <r>    1.8873    0.0000 </r>
      </set>
      <set comment="kpoint 4">
       <r>  -23.8148    1.0000 </r>
       <r>  -23.7360    1.0000 </r>
       <r>  -23.7294    1.0000 </r>
       <r>  -23.4413    1.0000 </r>
       <r>  -23.4159    1.0000 </r>
       <r>  -23.3327    1.0000 </r>
       <r>  -11.8559    1.0000 </r>
       <r>  -11.8531    1.0000 </r>
       <r>  -11.8366    1.0000 </r>
       <r>  -11.2267    1.0000 </r>
       <r>  -11.0840    1.0000 </r>
       <r>  -11.0593    1.0000 </r>
       <r>   -8.6404    1.0000 </r>
       <r>   -8.6355    1.0000 </r>
       <r>   -8.6179    1.0000 </r>
       <r>   -7.9052    1.0000 </r>
       <r>   -7.8911    1.0000 </r>
       <r>   -7.8594    1.0000 </r>
       <r>   -6.6526    1.0000 </r>
       <r>   -6.6519    1.0000 </r>
       <r>   -6.6455    1.0000 </r>
       <r>   -6.4782    1.0000 </r>
       <r>   -6.4561    1.0000 </r>
       <r>   -6.3322    1.0000 </r>
       <r>   -6.0600    1.0000 </r>
       <r>   -6.0591    1.0000 </r>
       <r>   -6.0519    1.0000 </r>
       <r>   -5.9287    1.0000 </r>
       <r>   -5.9100    1.0000 </r>
       <r>   -5.8474    1.0000 </r>
       <r>   -5.1814    1.0000 </r>
       <r>   -5.1798    1.0000 </r>
       <r>   -5.1743    1.0000 </r>
       <r>   -4.4892    1.0000 </r>
       <r>   -4.4887    1.0000 </r>
       <r>   -4.4884    1.0000 </r>
       <r>   -4.0443    1.0000 </r>
       <r>   -4.0423    1.0000 </r>
       <r>   -4.0353    1.0000 </r>
       <r>   -3.9295    1.0000 </r>
       <r>   -3.9250    1.0000 </r>
       <r>   -3.9242    1.0000 </r>
       <r>   -3.0777    1.0000 </r>
       <r>   -3.0764    1.0000 </r>
       <r>   -3.0758    1.0000 </r>
       <r>   -2.5665    1.0000 </r>
       <r>   -2.5640    1.0000 </r>
       <r>   -2.5543    1.0000 </r>
       <r>   -2.4079    1.0000 </r>
       <r>   -2.4064    1.0000 </r>
       <r>   -2.4049    1.0000 </r>
       <r>   -2.3779    1.0000 </r>
       <r>   -2.3759    1.0000 </r>
       <r>   -2.3747    1.0000 </r>
       <r>   -1.9796    1.0000 </r>
       <r>   -1.9784    1.0000 </r>
       <r>   -1.9777    1.0000 </r>
       <r>   -1.9182    1.0000 </r>
       <r>   -1.9153    1.0000 </r>
       <r>   -1.9124    1.0000 </r>
       <r>   -1.7983    1.0000 </r>
       <r>   -1.7964    1.0000 </r>
       <r>   -1.7940    1.0000 </r>
       <r>   -1.2893    1.0000 </r>
       <r>   -1.2851    1.0000 </r>
       <r>   -1.2777    1.0000 </r>
       <r>   -1.1308    1.0000 </r>
       <r>   -1.1275    1.0000 </r>
       <r>   -1.1193    1.4469 </r>
       <r>   -0.6586    1.0231 </r>
       <r>   -0.6505    0.5007 </r>
       <r>   -0.6463    0.1036 </r>
       <r>   -0.5628    0.0000 </r>
       <r>   -0.5395    0.0000 </r>
       <r>   -0.5373    0.0000 </r>
       <r>    0.0992    0.0000 </r>
       <r>    0.1053    0.0000 </r>
       <r>    0.1100    0.0000 </r>
       <r>    0.2133    0.0000 </r>
       <r>    0.2410    0.0000 </r>
       <r>    0.2469    0.0000 </r>
       <r>    0.5951    0.0000 </r>
       <r>    0.6053    0.0000 </r>
       <r>    0.6226    0.0000 </r>
       <r>    0.8713    0.0000 </r>
       <r>    0.8998    0.0000 </r>
       <r>    0.9021    0.0000 </r>
       <r>    1.4379    0.0000 </r>
       <r>    1.4499    0.0000 </r>
       <r>    1.4593    0.0000 </r>
       <r>    1.5041    0.0000 </r>
[...]
       <r>   -21.9222     0.0000    12.0000 </r>
       <r>   -21.8222     0.0000    12.0000 </r>
       <r>   -21.7221     0.0000    12.0000 </r>
       <r>   -21.6220     0.0000    12.0000 </r>
       <r>   -21.5219     0.0000    12.0000 </r>
       <r>   -21.4219     0.0000    12.0000 </r>
       <r>   -21.3218     0.0000    12.0000 </r>
       <r>   -21.2217     0.0000    12.0000 </r>
       <r>   -21.1216     0.0000    12.0000 </r>
       <r>   -21.0216     0.0000    12.0000 </r>
       <r>   -20.9215     0.0000    12.0000 </r>
       <r>   -20.8214     0.0000    12.0000 </r>
       <r>   -20.7213     0.0000    12.0000 </r>
       <r>   -20.6213     0.0000    12.0000 </r>
       <r>   -20.5212     0.0000    12.0000 </r>
       <r>   -20.4211     0.0000    12.0000 </r>
       <r>   -20.3210     0.0000    12.0000 </r>
       <r>   -20.2210     0.0000    12.0000 </r>
       <r>   -20.1209     0.0000    12.0000 </r>
       <r>   -20.0208     0.0000    12.0000 </r>
       <r>   -19.9207     0.0000    12.0000 </r>
       <r>   -19.8207     0.0000    12.0000 </r>
       <r>   -19.7206     0.0000    12.0000 </r>
       <r>   -19.6205     0.0000    12.0000 </r>
       <r>   -19.5204     0.0000    12.0000 </r>
       <r>   -19.4203     0.0000    12.0000 </r>
       <r>   -19.3203     0.0000    12.0000 </r>
       <r>   -19.2202     0.0000    12.0000 </r>
       <r>   -19.1201     0.0000    12.0000 </r>
       <r>   -19.0200     0.0000    12.0000 </r>
       <r>   -18.9200     0.0000    12.0000 </r>
       <r>   -18.8199     0.0000    12.0000 </r>
       <r>   -18.7198     0.0000    12.0000 </r>
       <r>   -18.6197     0.0000    12.0000 </r>
       <r>   -18.5197     0.0000    12.0000 </r>
       <r>   -18.4196     0.0000    12.0000 </r>
       <r>   -18.3195     0.0000    12.0000 </r>
       <r>   -18.2194     0.0000    12.0000 </r>
       <r>   -18.1194     0.0000    12.0000 </r>
       <r>   -18.0193     0.0000    12.0000 </r>
       <r>   -17.9192     0.0000    12.0000 </r>
       <r>   -17.8191     0.0000    12.0000 </r>
       <r>   -17.7191     0.0000    12.0000 </r>
       <r>   -17.6190     0.0000    12.0000 </r>
       <r>   -17.5189     0.0000    12.0000 </r>
       <r>   -17.4188     0.0000    12.0000 </r>
       <r>   -17.3188     0.0000    12.0000 </r>
       <r>   -17.2187     0.0000    12.0000 </r>
       <r>   -17.1186     0.0000    12.0000 </r>
       <r>   -17.0185     0.0000    12.0000 </r>
       <r>   -16.9185     0.0000    12.0000 </r>
       <r>   -16.8184     0.0000    12.0000 </r>
       <r>   -16.7183     0.0000    12.0000 </r>
       <r>   -16.6182     0.0000    12.0000 </r>
       <r>   -16.5182     0.0000    12.0000 </r>
       <r>   -16.4181     0.0000    12.0000 </r>
       <r>   -16.3180     0.0000    12.0000 </r>
       <r>   -16.2179     0.0000    12.0000 </r>
       <r>   -16.1179     0.0000    12.0000 </r>
       <r>   -16.0178     0.0000    12.0000 </r>
       <r>   -15.9177     0.0000    12.0000 </r>
       <r>   -15.8176     0.0000    12.0000 </r>
       <r>   -15.7176     0.0000    12.0000 </r>
       <r>   -15.6175     0.0000    12.0000 </r>
       <r>   -15.5174     0.0000    12.0000 </r>
       <r>   -15.4173     0.0000    12.0000 </r>
       <r>   -15.3173     0.0000    12.0000 </r>
       <r>   -15.2172     0.0000    12.0000 </r>
       <r>   -15.1171     0.0000    12.0000 </r>
       <r>   -15.0170     0.0000    12.0000 </r>
       <r>   -14.9169     0.0000    12.0000 </r>
       <r>   -14.8169     0.0000    12.0000 </r>
       <r>   -14.7168     0.0000    12.0000 </r>
       <r>   -14.6167     0.0000    12.0000 </r>
       <r>   -14.5166     0.0000    12.0000 </r>
       <r>   -14.4166     0.0000    12.0000 </r>
       <r>   -14.3165     0.0000    12.0000 </r>
       <r>   -14.2164     0.0000    12.0000 </r>
       <r>   -14.1163     0.0000    12.0000 </r>
       <r>   -14.0163     0.0000    12.0000 </r>
       <r>   -13.9162     0.0000    12.0000 </r>
       <r>   -13.8161     0.0000    12.0000 </r>
       <r>   -13.7160     0.0000    12.0000 </r>
       <r>   -13.6160     0.0000    12.0000 </r>
       <r>   -13.5159     0.0000    12.0000 </r>
       <r>   -13.4158     0.0000    12.0000 </r>
       <r>   -13.3157     0.0000    12.0000 </r>
       <r>   -13.2157     0.0000    12.0000 </r>
       <r>   -13.1156     0.0000    12.0000 </r>
       <r>   -13.0155     0.0000    12.0000 </r>
       <r>   -12.9154     0.0000    12.0000 </r>
       <r>   -12.8154     0.0000    12.0000 </r>
       <r>   -12.7153     0.0000    12.0000 </r>
       <r>   -12.6152     0.0000    12.0000 </r>
       <r>   -12.5151     0.0000    12.0000 </r>
       <r>   -12.4151     0.0000    12.0000 </r>
       <r>   -12.3150     0.0000    12.0000 </r>
       <r>   -12.2149     0.0000    12.0000 </r>
       <r>   -12.1148     0.0000    12.0000 </r>
       <r>   -12.0148     0.0000    12.0000 </r>
       <r>   -11.9147     0.0000    12.0000 </r>
       <r>   -11.8146     0.0000    18.0000 </r>
       <r>   -11.7145     0.0000    18.0000 </r>
       <r>   -11.6145     0.0000    18.0000 </r>
       <r>   -11.5144     0.0000    18.0000 </r>
       <r>   -11.4143     0.0000    18.0000 </r>
       <r>   -11.3142     0.0000    18.0000 </r>
       <r>   -11.2142    87.6912    18.4618 </r>
       <r>   -11.1141    39.5881    21.4168 </r>
       <r>   -11.0140     0.0000    24.0000 </r>
       <r>   -10.9139     0.0000    24.0000 </r>
       <r>   -10.8139     0.0000    24.0000 </r>
       <r>   -10.7138     0.0000    24.0000 </r>
       <r>   -10.6137     0.0000    24.0000 </r>
       <r>   -10.5136     0.0000    24.0000 </r>
       <r>   -10.4136     0.0000    24.0000 </r>
       <r>   -10.3135     0.0000    24.0000 </r>
       <r>   -10.2134     0.0000    24.0000 </r>
       <r>   -10.1133     0.0000    24.0000 </r>
       <r>   -10.0132     0.0000    24.0000 </r>
       <r>    -9.9132     0.0000    24.0000 </r>
       <r>    -9.8131     0.0000    24.0000 </r>
       <r>    -9.7130     0.0000    24.0000 </r>
       <r>    -9.6129     0.0000    24.0000 </r>
       <r>    -9.5129     0.0000    24.0000 </r>
       <r>    -9.4128     0.0000    24.0000 </r>
       <r>    -9.3127     0.0000    24.0000 </r>
       <r>    -9.2126     0.0000    24.0000 </r>
       <r>    -9.1126     0.0000    24.0000 </r>
       <r>    -9.0125     0.0000    24.0000 </r>
       <r>    -8.9124     0.0000    24.0000 </r>
       <r>    -8.8123     0.0000    24.0000 </r>
       <r>    -8.7123     0.0000    24.0000 </r>
       <r>    -8.6122   103.0221    28.9812 </r>
       <r>    -8.5121     0.0000    30.0000 </r>
       <r>    -8.4120     0.0000    30.0000 </r>
       <r>    -8.3120     0.0000    30.0000 </r>
       <r>    -8.2119     0.0000    30.0000 </r>
       <r>    -8.1118     0.0000    30.0000 </r>
       <r>    -8.0117     0.0000    30.0000 </r>
       <r>    -7.9117    67.9374    31.9106 </r>
       <r>    -7.8116    10.4526    35.9638 </r>
       <r>    -7.7115     0.0000    36.0000 </r>
       <r>    -7.6114     0.0000    36.0000 </r>
       <r>    -7.5114     0.0000    36.0000 </r>
       <r>    -7.4113     0.0000    36.0000 </r>
       <r>    -7.3112     1.3813    36.0420 </r>
       <r>    -7.2111     3.6530    36.2939 </r>
       <r>    -7.1111     5.3705    36.7688 </r>
       <r>    -7.0110     4.1983    37.2476 </r>
       <r>    -6.9109     3.0261    37.6091 </r>
       <r>    -6.8108     1.8538    37.8533 </r>
       <r>    -6.7108     3.0779    38.0890 </r>
       <r>    -6.6107    30.1143    38.9797 </r>
       <r>    -6.5106    25.3261    41.4465 </r>
       <r>    -6.4105    30.1016    44.1466 </r>
       <r>    -6.3105     3.2253    47.3803 </r>
       <r>    -6.2104     2.3854    47.6610 </r>
       <r>    -6.1103     1.5454    47.8577 </r>
       <r>    -6.0102    17.2137    48.3667 </r>
       <r>    -5.9102    35.3336    51.8759 </r>
       <r>    -5.8101    10.8828    55.6989 </r>
       <r>    -5.7100    24.3443    57.4616 </r>
       <r>    -5.6099    14.5331    59.0411 </r>
       <r>    -5.5098    10.9557    60.3165 </r>
       <r>    -5.4098     7.3782    61.2339 </r>
       <r>    -5.3097     3.8008    61.7932 </r>
       <r>    -5.2096     0.3532    61.9950 </r>
       <r>    -5.1095    24.3535    64.8001 </r>
       <r>    -5.0095     0.0000    66.0000 </r>
       <r>    -4.9094    10.7621    66.4198 </r>
       <r>    -4.8093     6.2598    67.2715 </r>
       <r>    -4.7092     2.8163    67.6901 </r>
       <r>    -4.6092     6.3519    68.0993 </r>
       <r>    -4.5091    11.7743    68.9909 </r>
       <r>    -4.4090    13.0781    71.1867 </r>
       <r>    -4.3089    22.8947    72.9867 </r>
       <r>    -4.2089    24.5218    75.0764 </r>
       <r>    -4.1088    17.0721    77.6825 </r>
       <r>    -4.0087     1.3082    78.3581 </r>
       <r>    -3.9086     7.2313    78.5560 </r>
       <r>    -3.8086    29.9592    80.7875 </r>
       <r>    -3.7085    14.3882    83.1702 </r>
       <r>    -3.6084     4.9240    84.4579 </r>
       <r>    -3.5083     7.2228    85.0981 </r>
       <r>    -3.4083     7.0486    85.8122 </r>
       <r>    -3.3082     6.8744    86.5089 </r>
       <r>    -3.2081     7.6616    87.2157 </r>
       <r>    -3.1080    34.0247    88.9088 </r>
       <r>    -3.0080     9.8317    91.3372 </r>
       <r>    -2.9079     9.4823    92.3747 </r>
       <r>    -2.8078    39.2776    95.2234 </r>
       <r>    -2.7077    28.1177    99.2034 </r>
       <r>    -2.6077    11.5204   101.0301 </r>
       <r>    -2.5076     8.2069   101.9289 </r>
       <r>    -2.4075     7.9352   102.7364 </r>
       <r>    -2.3074    16.4613   106.5536 </r>
       <r>    -2.2074     2.5656   107.5080 </r>
       <r>    -2.1073    13.1614   108.5288 </r>
       <r>    -2.0072     4.6286   109.4190 </r>
       <r>    -1.9071    10.3671   109.9353 </r>
       <r>    -1.8071    31.4812   112.0246 </r>
       <r>    -1.7070    29.6490   115.4509 </r>
       <r>    -1.6069    36.3871   118.7974 </r>
       <r>    -1.5068    26.8253   122.0140 </r>
       <r>    -1.4068    13.5550   123.9134 </r>
       <r>    -1.3067     8.5464   125.0156 </r>
       <r>    -1.2066    11.0039   127.4124 </r>
       <r>    -1.1065     9.8368   128.4154 </r>
       <r>    -1.0065    14.8811   129.5966 </r>
       <r>    -0.9064    19.5497   132.2524 </r>
       <r>    -0.8063    21.4459   134.5661 </r>
       <r>    -0.7062     9.1959   135.9187 </r>
       <r>    -0.6061    67.2664   139.5309 </r>
       <r>    -0.5061    20.1164   142.7283 </r>
       <r>    -0.4060    13.3338   144.7020 </r>
       <r>    -0.3059    14.0525   146.0081 </r>
       <r>    -0.2058     9.8987   147.4640 </r>
       <r>    -0.1058    39.6987   148.6528 </r>
       <r>    -0.0057     5.4900   149.9951 </r>
       <r>     0.0944    14.8189   153.9324 </r>
       <r>     0.1945    22.8853   156.0507 </r>
       <r>     0.2945     1.7899   160.0427 </r>
       <r>     0.3946     8.2596   160.5206 </r>
       <r>     0.4947    30.1072   161.9957 </r>
       <r>     0.5948    39.1548   165.9957 </r>
       <r>     0.6948    13.4897   168.7537 </r>
       <r>     0.7949     5.0987   169.6458 </r>
       <r>     0.8950    36.9464   173.1118 </r>
       <r>     0.9951    11.0723   174.8998 </r>
       <r>     1.0951    19.2853   178.4233 </r>
       <r>     1.1952    14.0594   180.0918 </r>
       <r>     1.2953    27.2002   182.5519 </r>
       <r>     1.3954    23.6901   186.1558 </r>
       <r>     1.4954    44.1240   190.7463 </r>
       <r>     1.5955    45.0310   196.0633 </r>
       <r>     1.6956    20.2307   199.5863 </r>
       <r>     1.7957    25.4442   201.8883 </r>
       <r>     1.8957     4.1086   202.2085 </r>
       <r>     1.9958     4.1185   202.6202 </r>
       <r>     2.0959     4.1284   203.0328 </r>
       <r>     2.1960     9.9314   203.9879 </r>
       <r>     2.2960     0.0000   204.0000 </r>
       <r>     2.3961     0.0000   204.0000 </r>
       <r>     2.4962     0.0000   204.0000 </r>
       <r>     2.5963     0.0000   204.0000 </r>
       <r>     2.6963     0.0000   204.0000 </r>
       <r>     2.7964     0.0000   204.0000 </r>
       <r>     2.8965     0.0000   204.0000 </r>
       <r>     2.9966     0.0000   204.0000 </r>
       <r>     3.0966     0.0000   204.0000 </r>
       <r>     3.1967     0.0000   204.0000 </r>
       <r>     3.2968     0.0000   204.0000 </r>
       <r>     3.3969     0.0000   204.0000 </r>
       <r>     3.4969     0.0000   204.0000 </r>
       <r>     3.5970     0.0000   204.0000 </r>
       <r>     3.6971     0.0000   204.0000 </r>
       <r>     3.7972     0.0000   204.0000 </r>
       <r>     3.8973     0.0000   204.0000 </r>
       <r>     3.9973     0.0000   204.0000 </r>
       <r>     4.0974     0.0000   204.0000 </r>
       <r>     4.1975     0.0000   204.0000 </r>
      </set>
     </set>
    </array>
   </total>
  </dos>
 </calculation>
 <structure name="finalpos" >
  <crystal>
   <varray name="basis" >
    <v>       9.55575275       0.00000000       0.00000000 </v>
    <v>      -4.77787638       8.27552464       0.00000000 </v>
    <v>       0.00000000       0.00000000      32.62509537 </v>
   </varray>
   <i name="volume">   2579.95558872 </i>
   <varray name="rec_basis" >
    <v>       0.10464900       0.06041913       0.00000000 </v>
    <v>       0.00000000       0.12083826       0.00000000 </v>
    <v>       0.00000000       0.00000000       0.03065125 </v>
   </varray>
  </crystal>
  <varray name="positions" >
   <v>       0.00000000       0.00000000       0.00000000 </v>
   <v>       0.00127256       0.00156052       0.15936183 </v>
   <v>       0.00039582       0.00187462       0.33380355 </v>
   <v>       0.00000001       0.33333336       0.00000000 </v>
   <v>       0.00177963       0.33491977       0.15861501 </v>
   <v>       0.00211736       0.33706712       0.31325100 </v>
   <v>       0.00000002       0.66666672       0.00000000 </v>
   <v>       0.00116661       0.66767706       0.15857452 </v>
   <v>       0.00324451       0.67126822       0.31695189 </v>
   <v>       0.33333334       0.00000000       0.00000000 </v>
   <v>       0.33510143       0.00157316       0.15858508 </v>
   <v>       0.33547288       0.00351249       0.31308937 </v>
   <v>       0.33333335       0.33333336       0.00000000 </v>
   <v>       0.33452475       0.33443390       0.15856748 </v>
   <v>       0.33686844       0.33805741       0.31674180 </v>
   <v>       0.33333336       0.66666672       0.00000000 </v>
   <v>       0.33459854       0.66814654       0.15936190 </v>
   <v>       0.33305381       0.66811028       0.33371926 </v>
   <v>       0.66666668       0.00000000       0.00000000 </v>
   <v>       0.66790340       0.00106299       0.15856137 </v>
   <v>       0.67013380       0.00434791       0.31684649 </v>
   <v>       0.66666668       0.33333336       0.00000000 </v>
   <v>       0.66798747       0.33490660       0.15936380 </v>
   <v>       0.66616904       0.33425371       0.33366259 </v>
   <v>       0.66666670       0.66666672       0.00000000 </v>
   <v>       0.66847198       0.66825142       0.15863905 </v>
   <v>       0.66896865       0.67038537       0.31363854 </v>
   <v>       0.11111113       0.22222222       0.07982145 </v>
   <v>       0.11320987       0.22115501       0.23829788 </v>
   <v>       0.11111114       0.55555561       0.07982145 </v>
   <v>       0.11681488       0.56119145       0.23820346 </v>
   <v>       0.11111116       0.88888894       0.07982145 </v>
   <v>       0.11081747       0.89105741       0.23748211 </v>
   <v>       0.44444450       0.22222222       0.07982145 </v>
   <v>       0.45010571       0.22779254       0.23809776 </v>
   <v>       0.44444450       0.55555561       0.07982145 </v>
   <v>       0.44444948       0.55805189       0.23758967 </v>
   <v>       0.44444451       0.88888894       0.07982145 </v>
   <v>       0.44667309       0.88787237       0.23820954 </v>
   <v>       0.77777779       0.22222222       0.07982145 </v>
   <v>       0.77754781       0.22445532       0.23752153 </v>
   <v>       0.77777781       0.55555561       0.07982145 </v>
   <v>       0.77980735       0.55448961       0.23840051 </v>
   <v>       0.77777784       0.88888894       0.07982145 </v>
   <v>       0.78343022       0.89426209       0.23823845 </v>
   <v>       0.99724605       0.99925424       0.39997884 </v>
   <v>       0.25845674       0.92624328       0.41656057 </v>
   <v>       0.92099615       0.25734702       0.41659676 </v>
   <v>       0.65738562       0.32535261       0.40002583 </v>
   <v>       0.58261752       0.58352160       0.41711106 </v>
   <v>       0.32581758       0.66236318       0.40001481 </v>
   <v>       0.98529914       0.08516342       0.41350538 </v>
   <v>       0.08389148       0.98937647       0.41374721 </v>
   <v>       0.36161585       0.02840061       0.41550325 </v>
   <v>       0.23032567       0.89988979       0.38693648 </v>
   <v>       0.02304343       0.36063772       0.41572457 </v>
   <v>       0.89399127       0.23112975       0.38690925 </v>
   <v>       0.64500422       0.41089290       0.41364769 </v>
   <v>       0.74458003       0.31613444       0.41373765 </v>
   <v>       0.68557427       0.68591340       0.41648027 </v>
   <v>       0.55600665       0.55873777       0.38734889 </v>
   <v>       0.31650335       0.74997377       0.41347656 </v>
   <v>       0.41070292       0.64985680       0.41390613 </v>
  </varray>
  <varray name="selective"  type="logical" >
   <v type="logical" >  F  F  F </v>
   <v type="logical" >  T  T  T </v>
   <v type="logical" >  T  T  T </v>
   <v type="logical" >  F  F  F </v>
   <v type="logical" >  T  T  T </v>
   <v type="logical" >  T  T  T </v>
   <v type="logical" >  F  F  F </v>
   <v type="logical" >  T  T  T </v>
   <v type="logical" >  T  T  T </v>
   <v type="logical" >  F  F  F </v>
   <v type="logical" >  T  T  T </v>
   <v type="logical" >  T  T  T </v>
   <v type="logical" >  F  F  F </v>
   <v type="logical" >  T  T  T </v>
   <v type="logical" >  T  T  T </v>
   <v type="logical" >  F  F  F </v>
   <v type="logical" >  T  T  T </v>
   <v type="logical" >  T  T  T </v>
   <v type="logical" >  F  F  F </v>
   <v type="logical" >  T  T  T </v>
   <v type="logical" >  T  T  T </v>
   <v type="logical" >  F  F  F </v>
   <v type="logical" >  T  T  T </v>
   <v type="logical" >  T  T  T </v>
   <v type="logical" >  F  F  F </v>
   <v type="logical" >  T  T  T </v>
   <v type="logical" >  T  T  T </v>
   <v type="logical" >  F  F  F </v>
   <v type="logical" >  T  T  T </v>
   <v type="logical" >  F  F  F </v>
   <v type="logical" >  T  T  T </v>
   <v type="logical" >  F  F  F </v>
   <v type="logical" >  T  T  T </v>
   <v type="logical" >  F  F  F </v>
   <v type="logical" >  T  T  T </v>
   <v type="logical" >  F  F  F </v>
   <v type="logical" >  T  T  T </v>
   <v type="logical" >  F  F  F </v>
   <v type="logical" >  T  T  T </v>
   <v type="logical" >  F  F  F </v>
   <v type="logical" >  T  T  T </v>
   <v type="logical" >  F  F  F </v>
   <v type="logical" >  T  T  T </v>
   <v type="logical" >  F  F  F </v>
   <v type="logical" >  T  T  T </v>
   <v type="logical" >  T  T  T </v>
   <v type="logical" >  T  T  T </v>
   <v type="logical" >  T  T  T </v>
   <v type="logical" >  T  T  T </v>
   <v type="logical" >  T  T  T </v>
   <v type="logical" >  T  T  T </v>
   <v type="logical" >  T  T  T </v>
   <v type="logical" >  T  T  T </v>
   <v type="logical" >  T  T  T </v>
   <v type="logical" >  T  T  T </v>
   <v type="logical" >  T  T  T </v>
   <v type="logical" >  T  T  T </v>
   <v type="logical" >  T  T  T </v>
   <v type="logical" >  T  T  T </v>
   <v type="logical" >  T  T  T </v>
   <v type="logical" >  T  T  T </v>
   <v type="logical" >  T  T  T </v>
   <v type="logical" >  T  T  T </v>
  </varray>
  <nose>
   <v>      -3.00000000       0.00000000       0.00010000       0.00010000 </v>
  </nose>
 </structure>
</modeling>
