Mg_slab_in_a_box                        
           1
     9.555753    0.000000    0.000000
    -4.777876    8.275525    0.000000
     0.000000    0.000000   32.625095
   Mg   O    H 
  45   6  12
Direct configuration=     1
   0.00000000  0.00000000  0.00000000
   0.00127256  0.00156052  0.15936183
   0.00039582  0.00187462  0.33380355
   0.00000001  0.33333336  0.00000000
   0.00177963  0.33491977  0.15861501
   0.00211736  0.33706712  0.31325100
   0.00000002  0.66666672  0.00000000
   0.00116661  0.66767706  0.15857452
   0.00324451  0.67126822  0.31695189
   0.33333334  0.00000000  0.00000000
   0.33510143  0.00157316  0.15858508
   0.33547288  0.00351249  0.31308937
   0.33333335  0.33333336  0.00000000
   0.33452475  0.33443390  0.15856748
   0.33686844  0.33805741  0.31674180
   0.33333336  0.66666672  0.00000000
   0.33459854  0.66814654  0.15936190
   0.33305381  0.66811028  0.33371926
   0.66666668  0.00000000  0.00000000
   0.66790340  0.00106299  0.15856137
   0.67013380  0.00434791  0.31684649
   0.66666668  0.33333336  0.00000000
   0.66798747  0.33490660  0.15936380
   0.66616904  0.33425371  0.33366259
   0.66666670  0.66666672  0.00000000
   0.66847198  0.66825142  0.15863905
   0.66896865  0.67038537  0.31363854
   0.11111113  0.22222222  0.07982145
   0.11320987  0.22115501  0.23829788
   0.11111114  0.55555561  0.07982145
   0.11681488  0.56119145  0.23820346
   0.11111116  0.88888894  0.07982145
   0.11081747  0.89105741  0.23748211
   0.44444450  0.22222222  0.07982145
   0.45010571  0.22779254  0.23809776
   0.44444450  0.55555561  0.07982145
   0.44444948  0.55805189  0.23758967
   0.44444451  0.88888894  0.07982145
   0.44667309  0.88787237  0.23820954
   0.77777779  0.22222222  0.07982145
   0.77754781  0.22445532  0.23752153
   0.77777781  0.55555561  0.07982145
   0.77980735  0.55448961  0.23840051
   0.77777784  0.88888894  0.07982145
   0.78343022  0.89426209  0.23823845
   0.99724605  0.99925424  0.39997884
   0.25845674  0.92624328  0.41656057
   0.92099615  0.25734702  0.41659676
   0.65738562  0.32535261  0.40002583
   0.58261752  0.58352160  0.41711106
   0.32581758  0.66236318  0.40001481
   0.98529914  0.08516342  0.41350538
   0.08389148  0.98937647  0.41374721
   0.36161585  0.02840061  0.41550325
   0.23032567  0.89988979  0.38693648
   0.02304343  0.36063772  0.41572457
   0.89399127  0.23112975  0.38690925
   0.64500422  0.41089290  0.41364769
   0.74458003  0.31613444  0.41373765
   0.68557427  0.68591340  0.41648027
   0.55600665  0.55873777  0.38734889
   0.31650335  0.74997377  0.41347656
   0.41070292  0.64985680  0.41390613
