  63  63   0   0
  0.4095168E+02  0.9555753E-09  0.9555753E-09  0.3262510E-08  0.5000000E-15
  1.000000000000000E-004
  CAR 
 Mg_slab_in_a_box                        
      3.98881044    -25.53039659  301     -0.78763006      1.00000000
    -25.530  0.0000E+00  0.0000E+00
    -25.432  0.0000E+00  0.0000E+00
    -25.334  0.0000E+00  0.0000E+00
    -25.235  0.0000E+00  0.0000E+00
    -25.137  0.0000E+00  0.0000E+00
    -25.038  0.0000E+00  0.0000E+00
    -24.940  0.0000E+00  0.0000E+00
    -24.842  0.0000E+00  0.0000E+00
    -24.743  0.0000E+00  0.0000E+00
    -24.645  0.0000E+00  0.0000E+00
    -24.546  0.0000E+00  0.0000E+00
    -24.448  0.0000E+00  0.0000E+00
    -24.350  0.0000E+00  0.0000E+00
    -24.251  0.0000E+00  0.0000E+00
    -24.153  0.0000E+00  0.0000E+00
    -24.054  0.0000E+00  0.0000E+00
    -23.956  0.0000E+00  0.0000E+00
    -23.858  0.0000E+00  0.0000E+00
    -23.759  0.0000E+00  0.0000E+00
    -23.661  0.0000E+00  0.0000E+00
    -23.562  0.0000E+00  0.0000E+00
    -23.464  0.0000E+00  0.2000E+01
    -23.366  0.0000E+00  0.2000E+01
    -23.267  0.0000E+00  0.6000E+01
    -23.169  0.0000E+00  0.8000E+01
    -23.070  0.0000E+00  0.8000E+01
    -22.972  0.0000E+00  0.1000E+02
    -22.874  0.0000E+00  0.1000E+02
    -22.775  0.0000E+00  0.1000E+02
    -22.677  0.0000E+00  0.1000E+02
    -22.578  0.0000E+00  0.1000E+02
    -22.480  0.0000E+00  0.1000E+02
    -22.382  0.0000E+00  0.1000E+02
    -22.283  0.0000E+00  0.1000E+02
    -22.185  0.0000E+00  0.1000E+02
    -22.086  0.0000E+00  0.1000E+02
    -21.988  0.0000E+00  0.1000E+02
    -21.890  0.0000E+00  0.1000E+02
    -21.791  0.0000E+00  0.1000E+02
    -21.693  0.0000E+00  0.1000E+02
    -21.595  0.0000E+00  0.1000E+02
    -21.496  0.0000E+00  0.1000E+02
    -21.398  0.0000E+00  0.1000E+02
    -21.299  0.0000E+00  0.1200E+02
    -21.201  0.0000E+00  0.1200E+02
    -21.103  0.0000E+00  0.1200E+02
    -21.004  0.0000E+00  0.1200E+02
    -20.906  0.0000E+00  0.1200E+02
    -20.807  0.0000E+00  0.1200E+02
    -20.709  0.0000E+00  0.1200E+02
    -20.611  0.0000E+00  0.1200E+02
    -20.512  0.0000E+00  0.1200E+02
    -20.414  0.0000E+00  0.1200E+02
    -20.315  0.0000E+00  0.1200E+02
    -20.217  0.0000E+00  0.1200E+02
    -20.119  0.0000E+00  0.1200E+02
    -20.020  0.0000E+00  0.1200E+02
    -19.922  0.0000E+00  0.1200E+02
    -19.823  0.0000E+00  0.1200E+02
    -19.725  0.0000E+00  0.1200E+02
    -19.627  0.0000E+00  0.1200E+02
    -19.528  0.0000E+00  0.1200E+02
    -19.430  0.0000E+00  0.1200E+02
    -19.331  0.0000E+00  0.1200E+02
    -19.233  0.0000E+00  0.1200E+02
    -19.135  0.0000E+00  0.1200E+02
    -19.036  0.0000E+00  0.1200E+02
    -18.938  0.0000E+00  0.1200E+02
    -18.839  0.0000E+00  0.1200E+02
    -18.741  0.0000E+00  0.1200E+02
    -18.643  0.0000E+00  0.1200E+02
    -18.544  0.0000E+00  0.1200E+02
    -18.446  0.0000E+00  0.1200E+02
    -18.347  0.0000E+00  0.1200E+02
    -18.249  0.0000E+00  0.1200E+02
    -18.151  0.0000E+00  0.1200E+02
    -18.052  0.0000E+00  0.1200E+02
    -17.954  0.0000E+00  0.1200E+02
    -17.855  0.0000E+00  0.1200E+02
    -17.757  0.0000E+00  0.1200E+02
    -17.659  0.0000E+00  0.1200E+02
    -17.560  0.0000E+00  0.1200E+02
    -17.462  0.0000E+00  0.1200E+02
    -17.363  0.0000E+00  0.1200E+02
    -17.265  0.0000E+00  0.1200E+02
    -17.167  0.0000E+00  0.1200E+02
    -17.068  0.0000E+00  0.1200E+02
    -16.970  0.0000E+00  0.1200E+02
    -16.871  0.0000E+00  0.1200E+02
    -16.773  0.0000E+00  0.1200E+02
    -16.675  0.0000E+00  0.1200E+02
    -16.576  0.0000E+00  0.1200E+02
    -16.478  0.0000E+00  0.1200E+02
    -16.379  0.0000E+00  0.1200E+02
    -16.281  0.0000E+00  0.1200E+02
    -16.183  0.0000E+00  0.1200E+02
    -16.084  0.0000E+00  0.1200E+02
    -15.986  0.0000E+00  0.1200E+02
    -15.887  0.0000E+00  0.1200E+02
    -15.789  0.0000E+00  0.1200E+02
    -15.691  0.0000E+00  0.1200E+02
    -15.592  0.0000E+00  0.1200E+02
    -15.494  0.0000E+00  0.1200E+02
    -15.395  0.0000E+00  0.1200E+02
    -15.297  0.0000E+00  0.1200E+02
    -15.199  0.0000E+00  0.1200E+02
    -15.100  0.0000E+00  0.1200E+02
    -15.002  0.0000E+00  0.1200E+02
    -14.903  0.0000E+00  0.1200E+02
    -14.805  0.0000E+00  0.1200E+02
    -14.707  0.0000E+00  0.1200E+02
    -14.608  0.0000E+00  0.1200E+02
    -14.510  0.0000E+00  0.1200E+02
    -14.411  0.0000E+00  0.1200E+02
    -14.313  0.0000E+00  0.1200E+02
    -14.215  0.0000E+00  0.1200E+02
    -14.116  0.0000E+00  0.1200E+02
    -14.018  0.0000E+00  0.1200E+02
    -13.920  0.0000E+00  0.1200E+02
    -13.821  0.0000E+00  0.1200E+02
    -13.723  0.0000E+00  0.1200E+02
    -13.624  0.0000E+00  0.1200E+02
    -13.526  0.0000E+00  0.1200E+02
    -13.428  0.0000E+00  0.1200E+02
    -13.329  0.0000E+00  0.1200E+02
    -13.231  0.0000E+00  0.1200E+02
    -13.132  0.0000E+00  0.1200E+02
    -13.034  0.0000E+00  0.1200E+02
    -12.936  0.0000E+00  0.1200E+02
    -12.837  0.0000E+00  0.1200E+02
    -12.739  0.0000E+00  0.1200E+02
    -12.640  0.0000E+00  0.1200E+02
    -12.542  0.0000E+00  0.1200E+02
    -12.444  0.0000E+00  0.1200E+02
    -12.345  0.0000E+00  0.1200E+02
    -12.247  0.0000E+00  0.1200E+02
    -12.148  0.0000E+00  0.1200E+02
    -12.050  0.0000E+00  0.1200E+02
    -11.952  0.0000E+00  0.1200E+02
    -11.853  0.0000E+00  0.1200E+02
    -11.755  0.0000E+00  0.1200E+02
    -11.656  0.0000E+00  0.1200E+02
    -11.558  0.0000E+00  0.1200E+02
    -11.460  0.0000E+00  0.1400E+02
    -11.361  0.0000E+00  0.1800E+02
    -11.263  0.0000E+00  0.1800E+02
    -11.164  0.0000E+00  0.1800E+02
    -11.066  0.0000E+00  0.2000E+02
    -10.968  0.0000E+00  0.2000E+02
    -10.869  0.0000E+00  0.2200E+02
    -10.771  0.0000E+00  0.2200E+02
    -10.672  0.0000E+00  0.2200E+02
    -10.574  0.0000E+00  0.2200E+02
    -10.476  0.0000E+00  0.2200E+02
    -10.377  0.0000E+00  0.2200E+02
    -10.279  0.0000E+00  0.2200E+02
    -10.180  0.0000E+00  0.2200E+02
    -10.082  0.0000E+00  0.2200E+02
     -9.984  0.0000E+00  0.2200E+02
     -9.885  0.0000E+00  0.2200E+02
     -9.787  0.0000E+00  0.2200E+02
     -9.688  0.0000E+00  0.2200E+02
     -9.590  0.0000E+00  0.2200E+02
     -9.492  0.0000E+00  0.2200E+02
     -9.393  0.0000E+00  0.2200E+02
     -9.295  0.0000E+00  0.2200E+02
     -9.196  0.0000E+00  0.2200E+02
     -9.098  0.0000E+00  0.2200E+02
     -9.000  0.0000E+00  0.2200E+02
     -8.901  0.0000E+00  0.2200E+02
     -8.803  0.0000E+00  0.2200E+02
     -8.704  0.0000E+00  0.2400E+02
     -8.606  0.0000E+00  0.2400E+02
     -8.508  0.5441E+02  0.2607E+02
     -8.409  0.0000E+00  0.2800E+02
     -8.311  0.0000E+00  0.2800E+02
     -8.212  0.0000E+00  0.3000E+02
     -8.114  0.0000E+00  0.3000E+02
     -8.016  0.0000E+00  0.3000E+02
     -7.917  0.0000E+00  0.3000E+02
     -7.819  0.0000E+00  0.3000E+02
     -7.720  0.0000E+00  0.3000E+02
     -7.622  0.0000E+00  0.3200E+02
     -7.524  0.6229E+00  0.3401E+02
     -7.425  0.3769E+01  0.3422E+02
     -7.327  0.9636E+01  0.3479E+02
     -7.228  0.5874E+01  0.3555E+02
     -7.130  0.2112E+01  0.3594E+02
     -7.032  0.6599E+01  0.3628E+02
     -6.933  0.1145E+02  0.3741E+02
     -6.835  0.4610E+00  0.3800E+02
     -6.737  0.6649E+01  0.3826E+02
     -6.638  0.1702E+02  0.3935E+02
     -6.540  0.7639E+01  0.4048E+02
     -6.441  0.9275E+01  0.4147E+02
     -6.343  0.4007E+02  0.4279E+02
     -6.245  0.6748E+01  0.4543E+02
     -6.146  0.1819E+02  0.4625E+02
     -6.048  0.1148E+02  0.4789E+02
     -5.949  0.2007E+02  0.4945E+02
     -5.851  0.2716E+02  0.5103E+02
     -5.753  0.7391E+01  0.5327E+02
     -5.654  0.2269E+02  0.5514E+02
     -5.556  0.2399E+02  0.5741E+02
     -5.457  0.1365E+02  0.5983E+02
     -5.359  0.9846E+01  0.6193E+02
     -5.261  0.3763E+02  0.6264E+02
     -5.162  0.1021E+02  0.6471E+02
     -5.064  0.6640E+01  0.6570E+02
     -4.965  0.2285E+02  0.6691E+02
     -4.867  0.7175E+02  0.6805E+02
     -4.769  0.9408E+01  0.6971E+02
     -4.670  0.6532E+01  0.7048E+02
     -4.572  0.2122E+02  0.7244E+02
     -4.473  0.2254E+02  0.7423E+02
     -4.375  0.1685E+02  0.7591E+02
     -4.277  0.1602E+02  0.7768E+02
     -4.178  0.5150E+01  0.7872E+02
     -4.080  0.1629E+01  0.8028E+02
     -3.981  0.1409E+02  0.8095E+02
     -3.883  0.1786E+02  0.8320E+02
     -3.785  0.6322E+01  0.8453E+02
     -3.686  0.1745E+02  0.8590E+02
     -3.588  0.6697E+01  0.8685E+02
     -3.489  0.7896E+01  0.8768E+02
     -3.391  0.6431E+01  0.8838E+02
     -3.293  0.6777E+01  0.8903E+02
     -3.194  0.5769E+01  0.9102E+02
     -3.096  0.2055E+02  0.9267E+02
     -2.997  0.3526E+02  0.9480E+02
     -2.899  0.3133E+02  0.9825E+02
     -2.801  0.1585E+02  0.1005E+03
     -2.702  0.7162E+01  0.1016E+03
     -2.604  0.2154E+02  0.1036E+03
     -2.505  0.3848E+02  0.1054E+03
     -2.407  0.2642E+01  0.1074E+03
     -2.309  0.4354E+01  0.1090E+03
     -2.210  0.3402E+01  0.1094E+03
     -2.112  0.4282E+02  0.1108E+03
     -2.013  0.1217E+02  0.1117E+03
     -1.915  0.2706E+02  0.1136E+03
     -1.817  0.2963E+02  0.1167E+03
     -1.718  0.3002E+02  0.1197E+03
     -1.620  0.2272E+02  0.1224E+03
     -1.521  0.2248E+02  0.1246E+03
     -1.423  0.1352E+02  0.1266E+03
     -1.325  0.1077E+02  0.1278E+03
     -1.226  0.9411E+01  0.1288E+03
     -1.128  0.2316E+02  0.1301E+03
     -1.029  0.2691E+02  0.1327E+03
     -0.931  0.2439E+02  0.1352E+03
     -0.833  0.1426E+02  0.1370E+03
     -0.734  0.3137E+02  0.1402E+03
     -0.636  0.1527E+02  0.1430E+03
     -0.537  0.5554E+01  0.1444E+03
     -0.439  0.1172E+02  0.1452E+03
     -0.341  0.9276E+01  0.1471E+03
     -0.242  0.2103E+02  0.1485E+03
     -0.144  0.1876E+02  0.1502E+03
     -0.045  0.4164E+02  0.1530E+03
      0.053  0.3914E+02  0.1549E+03
      0.151  0.1465E+02  0.1584E+03
      0.250  0.2298E+02  0.1608E+03
      0.348  0.0000E+00  0.1620E+03
      0.447  0.1830E+02  0.1651E+03
      0.545  0.2191E+02  0.1674E+03
      0.643  0.1772E+02  0.1690E+03
      0.742  0.1474E+02  0.1711E+03
      0.840  0.3196E+02  0.1738E+03
      0.938  0.9768E+01  0.1762E+03
      1.037  0.2888E+02  0.1782E+03
      1.135  0.2104E+02  0.1809E+03
      1.234  0.3981E+02  0.1846E+03
      1.332  0.4007E+02  0.1885E+03
      1.430  0.6200E+02  0.1918E+03
      1.529  0.3903E+02  0.1957E+03
      1.627  0.2758E+02  0.1990E+03
      1.726  0.4883E+01  0.2003E+03
      1.824  0.1824E+02  0.2012E+03
      1.922  0.8872E+01  0.2028E+03
      2.021  0.0000E+00  0.2040E+03
      2.119  0.0000E+00  0.2040E+03
      2.218  0.0000E+00  0.2040E+03
      2.316  0.0000E+00  0.2040E+03
      2.414  0.0000E+00  0.2040E+03
      2.513  0.0000E+00  0.2040E+03
      2.611  0.0000E+00  0.2040E+03
      2.710  0.0000E+00  0.2040E+03
      2.808  0.0000E+00  0.2040E+03
      2.906  0.0000E+00  0.2040E+03
      3.005  0.0000E+00  0.2040E+03
      3.103  0.0000E+00  0.2040E+03
      3.202  0.0000E+00  0.2040E+03
      3.300  0.0000E+00  0.2040E+03
      3.398  0.0000E+00  0.2040E+03
      3.497  0.0000E+00  0.2040E+03
      3.595  0.0000E+00  0.2040E+03
      3.694  0.0000E+00  0.2040E+03
      3.792  0.0000E+00  0.2040E+03
      3.890  0.0000E+00  0.2040E+03
      3.989  0.0000E+00  0.2040E+03
