 vasp.5.4.4.18Apr17-6-g9f103f2a35 (build Jun 08 2018 12:06:12) complex          
  
 executed on             LinuxIFC date 2019.06.06  07:18:48
 running on   72 total cores
 distrk:  each k-point on   72 cores,    1 groups
 distr:  one band on NCORES_PER_BAND=  24 cores,    3 groups


--------------------------------------------------------------------------------------------------------


 INCAR:
 POTCAR:    PAW_PBE Mg 13Apr2007                  
 POTCAR:    PAW_PBE O 08Apr2002                   
 POTCAR:    PAW_PBE H 15Jun2001                   

 ----------------------------------------------------------------------------- 
|                                                                             |
|           W    W    AA    RRRRR   N    N  II  N    N   GGGG   !!!           |
|           W    W   A  A   R    R  NN   N  II  NN   N  G    G  !!!           |
|           W    W  A    A  R    R  N N  N  II  N N  N  G       !!!           |
|           W WW W  AAAAAA  RRRRR   N  N N  II  N  N N  G  GGG   !            |
|           WW  WW  A    A  R   R   N   NN  II  N   NN  G    G                |
|           W    W  A    A  R    R  N    N  II  N    N   GGGG   !!!           |
|                                                                             |
|      For optimal performance we recommend to set                            |
|        NCORE= 4 - approx SQRT( number of cores)                             |
|      NCORE specifies how many cores store one orbital (NPAR=cpu/NCORE).     |
|      This setting can  greatly improve the performance of VASP for DFT.     |
|      The default,   NCORE=1            might be grossly inefficient         |
|      on modern multi-core architectures or massively parallel machines.     |
|      Do your own testing !!!!                                               |
|      Unfortunately you need to use the default for GW and RPA calculations. |
|      (for HF NCORE is supported but not extensively tested yet)             |
|                                                                             |
 ----------------------------------------------------------------------------- 


 ----------------------------------------------------------------------------- 
|                                                                             |
|  ADVICE TO THIS USER RUNNING 'VASP/VAMP'   (HEAR YOUR MASTER'S VOICE ...):  |
|                                                                             |
|      You have switched on vdW-DFT.                                          |
|      This routine was written and supplied by Jiri Klimes.                  |
|      We recommed that you carefully read and cite the following             |
|      publication                                                            |
|      J. Klimes, D.R. Bowler, A. Michelides                                  |
|        J. Phys.: Cond Matt. 22 022201 (2010)                                |
|      J. Klimes, D.R. Bowler, A. Michelides                                  |
|        Phys. Rev. B. 83, 195131 (2011)                                      |
|      and references therein.                                                |
|                                                                             |
 ----------------------------------------------------------------------------- 

 POTCAR:    PAW_PBE Mg 13Apr2007                  
   VRHFIN =Mg: s2p0                                                             
   LEXCH  = PE                                                                  
   EATOM  =    23.0369 eV,    1.6932 Ry                                         
                                                                                
   TITEL  = PAW_PBE Mg 13Apr2007                                                
   LULTRA =        F    use ultrasoft PP ?                                      
   IUNSCR =        1    unscreen: 0-lin 1-nonlin 2-no                           
   RPACOR =    1.500    partial core radius                                     
   POMASS =   24.305; ZVAL   =    2.000    mass and valenz                      
   RCORE  =    2.000    outmost cutoff radius                                   
   RWIGS  =    2.880; RWIGS  =    1.524    wigner-seitz radius (au A)           
   ENMAX  =  200.000; ENMIN  =  100.000 eV                                      
   RCLOC  =    1.506    cutoff for local pot                                    
   LCOR   =        T    correct aug charges                                     
   LPAW   =        T    paw PP                                                  
   EAUG   =  454.734                                                            
   DEXC   =    0.000                                                            
   RMAX   =    2.045    core radius for proj-oper                               
   RAUG   =    1.300    factor for augmentation sphere                          
   RDEP   =    2.025    radius for radial grids                                 
   RDEPT  =    1.942    core radius for aug-charge                              
                                                                                
   Atomic configuration                                                         
    6 entries                                                                   
     n  l   j            E        occ.                                          
     1  0  0.50     -1259.6230   2.0000                                         
     2  0  0.50       -79.8442   2.0000                                         
     2  1  1.50       -46.6121   6.0000                                         
     3  0  0.50        -4.7055   2.0000                                         
     3  1  0.50        -1.3660   0.0000                                         
     3  2  1.50        -1.3606   0.0000                                         
   Description                                                                  
     l       E           TYP  RCUT    TYP  RCUT                                 
     0     -4.7054661     23  2.000                                             
     0     27.2116520     23  2.000                                             
     1      1.3605826     23  2.000                                             
     1     27.2116520     23  2.000                                             
     2     -1.3605826     23  2.000                                             
  local pseudopotential read in
  partial core-charges read in
  partial kinetic energy density read in
  atomic valenz-charges read in
  non local Contribution for L=           0  read in
    real space projection operators read in
  non local Contribution for L=           0  read in
    real space projection operators read in
  non local Contribution for L=           1  read in
    real space projection operators read in
  non local Contribution for L=           1  read in
    real space projection operators read in
  non local Contribution for L=           2  read in
    real space projection operators read in
    PAW grid and wavefunctions read in
 
   number of l-projection  operators is LMAX  =           5
   number of lm-projection operators is LMMAX =          13
 
 POTCAR:    PAW_PBE O 08Apr2002                   
   VRHFIN =O: s2p4                                                              
   LEXCH  = PE                                                                  
   EATOM  =   432.3788 eV,   31.7789 Ry                                         
                                                                                
   TITEL  = PAW_PBE O 08Apr2002                                                 
   LULTRA =        F    use ultrasoft PP ?                                      
   IUNSCR =        1    unscreen: 0-lin 1-nonlin 2-no                           
   RPACOR =    1.200    partial core radius                                     
   POMASS =   16.000; ZVAL   =    6.000    mass and valenz                      
   RCORE  =    1.520    outmost cutoff radius                                   
   RWIGS  =    1.550; RWIGS  =    0.820    wigner-seitz radius (au A)           
   ENMAX  =  400.000; ENMIN  =  300.000 eV                                      
   ICORE  =        2    local potential                                         
   LCOR   =        T    correct aug charges                                     
   LPAW   =        T    paw PP                                                  
   EAUG   =  605.392                                                            
   DEXC   =    0.000                                                            
   RMAX   =    1.553    core radius for proj-oper                               
   RAUG   =    1.300    factor for augmentation sphere                          
   RDEP   =    1.550    radius for radial grids                                 
   RDEPT  =    1.329    core radius for aug-charge                              
                                                                                
   Atomic configuration                                                         
    4 entries                                                                   
     n  l   j            E        occ.                                          
     1  0  0.50      -514.6923   2.0000                                         
     2  0  0.50       -23.9615   2.0000                                         
     2  1  0.50        -9.0305   4.0000                                         
     3  2  1.50        -9.5241   0.0000                                         
   Description                                                                  
     l       E           TYP  RCUT    TYP  RCUT                                 
     0    -23.9615318     23  1.200                                             
     0     -9.5240782     23  1.200                                             
     1     -9.0304911     23  1.520                                             
     1      8.1634956     23  1.520                                             
     2     -9.5240782      7  1.500                                             
  local pseudopotential read in
  partial core-charges read in
  partial kinetic energy density read in
  kinetic energy density of atom read in
  atomic valenz-charges read in
  non local Contribution for L=           0  read in
    real space projection operators read in
  non local Contribution for L=           0  read in
    real space projection operators read in
  non local Contribution for L=           1  read in
    real space projection operators read in
  non local Contribution for L=           1  read in
    real space projection operators read in
    PAW grid and wavefunctions read in
 
   number of l-projection  operators is LMAX  =           4
   number of lm-projection operators is LMMAX =           8
 
 POTCAR:    PAW_PBE H 15Jun2001                   
   VRHFIN =H: ultrasoft test                                                    
   LEXCH  = PE                                                                  
   EATOM  =    12.4884 eV,    0.9179 Ry                                         
                                                                                
   TITEL  = PAW_PBE H 15Jun2001                                                 
   LULTRA =        F    use ultrasoft PP ?                                      
   IUNSCR =        0    unscreen: 0-lin 1-nonlin 2-no                           
   RPACOR =    0.000    partial core radius                                     
   POMASS =    1.000; ZVAL   =    1.000    mass and valenz                      
   RCORE  =    1.100    outmost cutoff radius                                   
   RWIGS  =    0.700; RWIGS  =    0.370    wigner-seitz radius (au A)           
   ENMAX  =  250.000; ENMIN  =  200.000 eV                                      
   RCLOC  =    0.701    cutoff for local pot                                    
   LCOR   =        T    correct aug charges                                     
   LPAW   =        T    paw PP                                                  
   EAUG   =  400.000                                                            
   RMAX   =    1.123    core radius for proj-oper                               
   RAUG   =    1.200    factor for augmentation sphere                          
   RDEP   =    1.112    radius for radial grids                                 
   RDEPT  =    0.926    core radius for aug-charge                              
                                                                                
   Atomic configuration                                                         
    2 entries                                                                   
     n  l   j            E        occ.                                          
     1  0  0.50        -6.4927   1.0000                                         
     2  1  0.50        -3.4015   0.0000                                         
   Description                                                                  
     l       E           TYP  RCUT    TYP  RCUT                                 
     0     -6.4927494     23  1.100                                             
     0      6.8029130     23  1.100                                             
     1     -4.0817478     23  1.100                                             
  local pseudopotential read in
  atomic valenz-charges read in
  non local Contribution for L=           0  read in
    real space projection operators read in
  non local Contribution for L=           0  read in
    real space projection operators read in
  non local Contribution for L=           1  read in
    real space projection operators read in
    PAW grid and wavefunctions read in
 
   number of l-projection  operators is LMAX  =           3
   number of lm-projection operators is LMMAX =           5
 
 Optimization of the real space projectors (new method)

 maximal supplied QI-value         = 18.90
 optimisation between [QCUT,QGAM] = [ 11.53, 23.24] = [ 37.21,151.29] Ry 
 Optimized for a Real-space Cutoff    1.28 Angstroem

   l    n(q)    QCUT    max X(q) W(low)/X(q) W(high)/X(q)  e(spline) 
   0      9    11.527    28.265    0.62E-04    0.53E-04    0.73E-07
   0      9    11.527    10.429    0.52E-04    0.40E-04    0.58E-07
   1      8    11.527    13.073    0.98E-04    0.18E-03    0.86E-07
   1      8    11.527     9.625    0.79E-04    0.15E-03    0.74E-07
   2      8    11.527     4.652    0.22E-03    0.72E-04    0.47E-07
 Optimization of the real space projectors (new method)

 maximal supplied QI-value         = 24.76
 optimisation between [QCUT,QGAM] = [ 11.64, 23.27] = [ 37.91,151.63] Ry 
 Optimized for a Real-space Cutoff    1.14 Angstroem

   l    n(q)    QCUT    max X(q) W(low)/X(q) W(high)/X(q)  e(spline) 
   0      8    11.635    20.381    0.10E-03    0.33E-03    0.24E-06
   0      8    11.635    15.268    0.11E-03    0.35E-03    0.26E-06
   1      7    11.635     5.964    0.24E-03    0.31E-03    0.30E-06
   1      7    11.635     5.382    0.22E-03    0.25E-03    0.26E-06
 Optimization of the real space projectors (new method)

 maximal supplied QI-value         = 34.20
 optimisation between [QCUT,QGAM] = [ 11.63, 23.26] = [ 37.87,151.49] Ry 
 Optimized for a Real-space Cutoff    1.21 Angstroem

   l    n(q)    QCUT    max X(q) W(low)/X(q) W(high)/X(q)  e(spline) 
   0      8    11.629    19.460    0.17E-03    0.34E-03    0.21E-06
   0      8    11.629    12.209    0.16E-03    0.33E-03    0.21E-06
   1      8    11.629     4.655    0.18E-03    0.16E-03    0.26E-06

 ----------------------------------------------------------------------------- 
|                                                                             |
|  ADVICE TO THIS USER RUNNING 'VASP/VAMP'   (HEAR YOUR MASTER'S VOICE ...):  |
|                                                                             |
|      You enforced a specific xc-type in the INCAR file,                     |
|      a different type was found on the POTCAR file                          |
|          I HOPE YOU KNOW, WHAT YOU ARE  DOING                               |
|                                                                             |
 ----------------------------------------------------------------------------- 

  PAW_PBE Mg 13Apr2007                  :
 energy of atom  1       EATOM=  -23.0369
 kinetic energy error for atom=    0.0000 (will be added to EATOM!!)
  PAW_PBE O 08Apr2002                   :
 energy of atom  2       EATOM= -432.3788
 kinetic energy error for atom=    0.0208 (will be added to EATOM!!)
  PAW_PBE H 15Jun2001                   :
 energy of atom  3       EATOM=  -12.4884
 kinetic energy error for atom=    0.0014 (will be added to EATOM!!)
 
 
 POSCAR: Mg   O    H                             
  positions in direct lattice
  velocities in cartesian coordinates
 exchange correlation table for  LEXCH =       42
   RHO(1)=    0.500       N(1)  =     2000
   RHO(2)=  100.500       N(2)  =     4000

 VTST: version 3.2, (02/03/18)

 CHAIN: initializing optimizer
 
 OPT: Using VASP Dynamics algorithm
 CHAIN: Read ICHAIN            0
 
 POSCAR: Mg   O    H                             
  positions in direct lattice
  velocities in cartesian coordinates
 


--------------------------------------------------------------------------------------------------------


 ion  position               nearest neighbor table
   1  0.000  0.000  0.000-   7 3.19  25 3.19  19 3.19  10 3.19   4 3.19  13 3.19  44 3.19  32 3.19
                            28 3.19
   2  0.997  0.999  0.159-  33 3.10  29 3.11  44 3.15  28 3.16  32 3.17  26 3.17   8 3.17  20 3.18
                            11 3.18  14 3.19   5 3.20  45 3.23
   3  0.998  0.004  0.330-  46 2.11  15 3.09  27 3.17   9 3.22  12 3.23   6 3.24  21 3.25  45 3.45
                            29 3.56  33 3.56
   4  0.000  0.333  0.000-  22 3.19  13 3.19  19 3.19  16 3.19   1 3.19   7 3.19  40 3.19  30 3.19
                            28 3.19
   5  0.999  0.335  0.157-  40 3.12  30 3.12  29 3.13  28 3.14  41 3.15  17 3.17  31 3.18   8 3.18
                            14 3.19  23 3.20   2 3.20  20 3.20
   6  0.988  0.333  0.311-  31 3.08  41 3.08  21 3.10  29 3.12  24 3.14   9 3.18  15 3.19  18 3.23
                             3 3.24
   7  0.000  0.667  0.000-   1 3.19  10 3.19  25 3.19  16 3.19  22 3.19   4 3.19  42 3.19  32 3.19
                            30 3.19
   8  0.997  0.667  0.158-  42 3.13  33 3.14  32 3.15  31 3.16  26 3.16  30 3.16   2 3.17  23 3.17
                            11 3.18   5 3.18  17 3.19  43 3.30
   9  0.002  0.672  0.315-  18 3.07  43 3.08  12 3.10  33 3.14  31 3.16   6 3.18  27 3.22   3 3.22
                            24 3.33
  10  0.333  0.000  0.000-  16 3.19   7 3.19  19 3.19   1 3.19  22 3.19  13 3.19  32 3.19  34 3.19
                            38 3.19
  11  0.331  0.999  0.158-  32 3.12  34 3.14  38 3.15  33 3.16  35 3.17  39 3.18  14 3.18  17 3.18
                             8 3.18   2 3.18  20 3.20  23 3.20
  12  0.326  0.997  0.312-  33 3.07  39 3.09  35 3.10   9 3.10  15 3.14  18 3.16  21 3.17  24 3.19
                             3 3.23
  13  0.333  0.333  0.000-  22 3.19   4 3.19  10 3.19   1 3.19  25 3.19  16 3.19  28 3.19  36 3.19
                            34 3.19
  14  0.331  0.332  0.157-  28 3.11  34 3.12  36 3.12  37 3.16  35 3.16  29 3.17  23 3.17  11 3.18
                             2 3.19   5 3.19  17 3.20  26 3.20
  15  0.316  0.321  0.311-  61 1.93  29 3.03  35 3.07   3 3.09  12 3.14  37 3.15   6 3.19  24 3.30
                            18 3.38  27 3.38
  16  0.333  0.667  0.000-  10 3.19  19 3.19   7 3.19  25 3.19   4 3.19  13 3.19  38 3.19  30 3.19
                            36 3.19
  17  0.331  0.667  0.158-  37 3.12  39 3.13  31 3.14  30 3.14  38 3.15  36 3.16   5 3.17  20 3.18
                            11 3.18   8 3.19  14 3.20  26 3.21
  18  0.316  0.668  0.331-  61 1.95  51 2.07   9 3.07  12 3.16   6 3.23  27 3.33  21 3.34  15 3.38
                            31 3.51  39 3.56
  19  0.667  0.000  0.000-  25 3.19  16 3.19   1 3.19  10 3.19   4 3.19  22 3.19  38 3.19  44 3.19
                            40 3.19
  20  0.665  0.999  0.158-  41 3.12  38 3.13  44 3.14  40 3.14  39 3.17   2 3.18  26 3.18  17 3.18
                            11 3.20   5 3.20  23 3.22  45 3.26
  21  0.664  0.009  0.314-  24 3.06  45 3.08   6 3.10  39 3.13  41 3.13  12 3.17  27 3.23   3 3.25
                            18 3.34
  22  0.667  0.333  0.000-  13 3.19   4 3.19  10 3.19  25 3.19   7 3.19  19 3.19  34 3.19  42 3.19
                            40 3.19
  23  0.665  0.335  0.159-  41 3.08  35 3.12  42 3.15  34 3.15  26 3.16   8 3.17  14 3.17  40 3.18
                             5 3.20  11 3.20  20 3.22  43 3.23
  24  0.659  0.323  0.327-  49 2.12  21 3.06   6 3.14  12 3.19  15 3.30  27 3.32   9 3.33  43 3.38
                            35 3.46  41 3.50
  25  0.667  0.667  0.000-   1 3.19  19 3.19   7 3.19  16 3.19  22 3.19  13 3.19  36 3.19  42 3.19
                            44 3.19
  26  0.666  0.667  0.159-  37 3.11   8 3.16  23 3.16  44 3.17  36 3.17   2 3.17  42 3.17  20 3.18
                            14 3.20  17 3.21  45 3.21  43 3.23
  27  0.666  0.674  0.323-  61 1.96  50 2.02   3 3.17   9 3.22  45 3.23  21 3.23  43 3.26  24 3.32
                            18 3.33  15 3.38  37 3.40
  28  0.111  0.222  0.080-  14 3.11   5 3.14   2 3.16  44 3.19  32 3.19  40 3.19  34 3.19  36 3.19
                            30 3.19   1 3.19  13 3.19   4 3.19
  29  0.105  0.221  0.235-  15 3.03   2 3.11   6 3.12   5 3.13  14 3.17  33 3.17  45 3.17  41 3.19
                            31 3.20  37 3.21  35 3.22   3 3.56
  30  0.111  0.556  0.080-   5 3.12  17 3.14   8 3.16  32 3.19  42 3.19  38 3.19  40 3.19  36 3.19
                            28 3.19  16 3.19   7 3.19   4 3.19
  31  0.112  0.559  0.237-   6 3.08  39 3.13  17 3.14   8 3.16   9 3.16  37 3.17   5 3.18  33 3.19
                            29 3.20  41 3.23  43 3.24  18 3.51
  32  0.111  0.889  0.080-  11 3.12   8 3.15   2 3.17  28 3.19  34 3.19  44 3.19  30 3.19  42 3.19
                            38 3.19  10 3.19   1 3.19   7 3.19
  33  0.106  0.890  0.236-  12 3.07   2 3.10   8 3.14   9 3.14  45 3.14  11 3.16  29 3.17  31 3.19
                            35 3.21  43 3.23  39 3.23   3 3.56
  34  0.444  0.222  0.080-  14 3.12  11 3.14  23 3.15  38 3.19  40 3.19  32 3.19  42 3.19  28 3.19
                            36 3.19  22 3.19  10 3.19  13 3.19
  35  0.444  0.224  0.236-  15 3.07  12 3.10  23 3.12  43 3.12  41 3.15  14 3.16  11 3.17  37 3.18
                            33 3.21  29 3.22  39 3.23  24 3.46
  36  0.444  0.556  0.080-  14 3.12  17 3.16  26 3.17  42 3.19  38 3.19  44 3.19  30 3.19  28 3.19
                            34 3.19  25 3.19  13 3.19  16 3.19
  37  0.442  0.556  0.235-  26 3.11  17 3.12  39 3.15  15 3.15  43 3.16  14 3.16  31 3.17  35 3.18
                            45 3.18  29 3.21  27 3.40
  38  0.444  0.889  0.080-  20 3.13  11 3.15  17 3.15  40 3.19  34 3.19  44 3.19  36 3.19  30 3.19
                            32 3.19  19 3.19  16 3.19  10 3.19
  39  0.441  0.885  0.237-  12 3.09  21 3.13  17 3.13  31 3.13  37 3.15  20 3.17  11 3.18  45 3.19
                            41 3.19  33 3.23  35 3.23  18 3.56
  40  0.778  0.222  0.080-   5 3.12  20 3.14  23 3.18  38 3.19  34 3.19  44 3.19  28 3.19  30 3.19
                            42 3.19   4 3.19  19 3.19  22 3.19
  41  0.772  0.222  0.235-   6 3.08  23 3.08  20 3.12  21 3.13   5 3.15  35 3.15  43 3.17  29 3.19
                            39 3.19  45 3.22  31 3.23  24 3.50
  42  0.778  0.556  0.080-   8 3.13  23 3.15  26 3.17  36 3.19  44 3.19  30 3.19  32 3.19  34 3.19
                            40 3.19  25 3.19   7 3.19  22 3.19
  43  0.770  0.551  0.241-   9 3.08  35 3.12  37 3.16  41 3.17  45 3.18  33 3.23  23 3.23  26 3.23
                            31 3.24  27 3.26   8 3.30  24 3.38
  44  0.778  0.889  0.080-  20 3.14   2 3.15  26 3.17  28 3.19  40 3.19  42 3.19  32 3.19  38 3.19
                            36 3.19   1 3.19  19 3.19  25 3.19
  45  0.776  0.887  0.240-  21 3.08  33 3.14  29 3.17  43 3.18  37 3.18  39 3.19  26 3.21  41 3.22
                            27 3.23   2 3.23  20 3.26   3 3.45
  46  0.987  0.998  0.394-  52 1.00  53 1.00   3 2.11
  47  0.264  0.994  0.417-  54 0.98  55 0.99
  48  0.909  0.235  0.416-  56 0.98  57 0.99
  49  0.627  0.364  0.389-  59 0.98  58 1.04  24 2.12
  50  0.637  0.639  0.384-  60 0.98  27 2.02
  51  0.376  0.656  0.391-  62 0.97  63 1.04  18 2.07
  52  0.966  0.081  0.407-  46 1.00
  53  0.085  0.005  0.407-  46 1.00
  54  0.361  0.098  0.412-  47 0.98
  55  0.253  0.930  0.392-  47 0.99
  56  0.009  0.339  0.414-  48 0.98
  57  0.860  0.221  0.388-  48 0.99
  58  0.632  0.475  0.392-  49 1.04
  59  0.703  0.363  0.409-  49 0.98
  60  0.729  0.724  0.399-  50 0.98
  61  0.431  0.553  0.317-  15 1.93  18 1.95  27 1.96
  62  0.384  0.737  0.411-  51 0.97
  63  0.482  0.651  0.393-  51 1.04
 
  LATTYP: Found a hexagonal cell.
 ALAT       =     9.5557527542
 C/A-ratio  =     3.4141837076
  
  Lattice vectors:
  
 A1 = (   9.5557527542,   0.0000000000,   0.0000000000)
 A2 = (  -4.7778763771,   8.2755246374,   0.0000000000)
 A3 = (   0.0000000000,   0.0000000000,  32.6250953674)


Analysis of symmetry for initial positions (statically):
=====================================================================
 Subroutine PRICEL returns:
 Original cell was already a primitive cell.
 

 Routine SETGRP: Setting up the symmetry group for a 
 hexagonal supercell.


 Subroutine GETGRP returns: Found  1 space group operations
 (whereof  1 operations were pure point group operations)
 out of a pool of 24 trial point group operations.


The static configuration has the point symmetry C_1 .


Analysis of symmetry for dynamics (positions and initial velocities):
=====================================================================
 Subroutine PRICEL returns:
 Original cell was already a primitive cell.
 

 Routine SETGRP: Setting up the symmetry group for a 
 hexagonal supercell.


 Subroutine GETGRP returns: Found  1 space group operations
 (whereof  1 operations were pure point group operations)
 out of a pool of 24 trial point group operations.


The dynamic configuration has the point symmetry C_1 .


Analysis of constrained symmetry for selective dynamics:
=====================================================================
 Subroutine PRICEL returns:
 Original cell was already a primitive cell.
 

 Routine SETGRP: Setting up the symmetry group for a 
 hexagonal supercell.


 Subroutine GETGRP returns: Found  1 space group operations
 (whereof  1 operations were pure point group operations)
 out of a pool of 24 trial point group operations.


The constrained configuration has the point symmetry C_1 .


 Subroutine INISYM returns: Found  1 space group operations
 (whereof  1 operations are pure point group operations),
 and found     1 'primitive' translations

 
 
 KPOINTS: Auto                                    

Automatic generation of k-mesh.
Space group operators:
 irot       det(A)        alpha          n_x          n_y          n_z        tau_x        tau_y        tau_z
    1     1.000000     0.000000     1.000000     0.000000     0.000000     0.000000     0.000000     0.000000
 
 Subroutine IBZKPT returns following result:
 ===========================================
 
 Found      5 irreducible k-points:
 
 Following reciprocal coordinates:
            Coordinates               Weight
  0.000000  0.000000  0.000000      1.000000
  0.333333 -0.000000  0.000000      2.000000
  0.000000  0.333333  0.000000      2.000000
  0.333333  0.333333  0.000000      2.000000
 -0.333333  0.333333  0.000000      2.000000
 
 Following cartesian coordinates:
            Coordinates               Weight
  0.000000  0.000000  0.000000      1.000000
  0.034883  0.020140  0.000000      2.000000
  0.000000  0.040279  0.000000      2.000000
  0.034883  0.060419  0.000000      2.000000
 -0.034883  0.020140  0.000000      2.000000
 
 TETIRR: Found     24 inequivalent tetrahedra from       54


--------------------------------------------------------------------------------------------------------




 Dimension of arrays:
   k-points           NKPTS =      5   k-points in BZ     NKDIM =      5   number of bands    NBANDS=    102
   number of dos      NEDOS =    301   number of ions     NIONS =     63
   non local maximal  LDIM  =      5   non local SUM 2l+1 LMDIM =     13
   total plane-waves  NPLWV = ******
   max r-space proj   IRMAX =   4509   max aug-charges    IRDMAX=  21536
   dimension x,y,z NGX =    72 NGY =   72 NGZ =  250
   dimension x,y,z NGXF=   144 NGYF=  144 NGZF=  500
   support grid    NGXF=   144 NGYF=  144 NGZF=  500
   ions per type =              45   6  12
   NGX,Y,Z   is equivalent  to a cutoff of  12.53, 12.53, 12.74 a.u.
   NGXF,Y,Z  is equivalent  to a cutoff of  25.05, 25.05, 25.48 a.u.

 SYSTEM =  Mg_slab_in_a_box                        
 POSCAR =  Mg   O    H                             

 Startparameter for this run:
   NWRITE =      2    write-flag & timer
   PREC   = accura    normal or accurate (medium, high low for compatibility)
   ISTART =      0    job   : 0-new  1-cont  2-samecut
   ICHARG =      2    charge: 1-file 2-atom 10-const
   ISPIN  =      1    spin polarized calculation?
   LNONCOLLINEAR =      F non collinear calculations
   LSORBIT =      F    spin-orbit coupling
   INIWAV =      1    electr: 0-lowe 1-rand  2-diag
   LASPH  =      T    aspherical Exc in radial PAW
   METAGGA=      F    non-selfconsistent MetaGGA calc.

 Electronic Relaxation 1
   ENCUT  =  520.0 eV  38.22 Ry    6.18 a.u.  17.77 17.77 60.66*2*pi/ulx,y,z
   ENINI  =  520.0     initial cutoff
   ENAUG  =  605.4 eV  augmentation charge cutoff
   NELM   =    300;   NELMIN=  6; NELMDL=-12     # of ELM steps 
   EDIFF  = 0.5E-05   stopping-criterion for ELM
   LREAL  =      T    real-space projection
   NLSPLINE    = F    spline interpolate recip. space projectors
   LCOMPAT=      F    compatible to vasp.4.4
   GGA_COMPAT  = T    GGA compatible to vasp.4.4-vasp.4.6
   LMAXPAW     = -100 max onsite density
   LMAXMIX     =    2 max onsite mixed and CHGCAR
   VOSKOWN=      0    Vosko Wilk Nusair interpolation
   ROPT   =   -0.00025  -0.00025  -0.00025
 Ionic relaxation
   EDIFFG = 0.5E-04   stopping-criterion for IOM
   NSW    =      0    number of steps for IOM
   NBLOCK =      1;   KBLOCK =      1    inner block; outer block 
   IBRION =     -1    ionic relax: 0-MD 1-quasi-New 2-CG
   NFREE  =      0    steps in history (QN), initial steepest desc. (CG)
   ISIF   =      2    stress and relaxation
   IWAVPR =     10    prediction:  0-non 1-charg 2-wave 3-comb
   ISYM   =      2    0-nonsym 1-usesym 2-fastsym
   LCORR  =      T    Harris-Foulkes like correction to forces

   POTIM  = 0.5000    time-step for ionic-motion
   TEIN   =    0.0    initial temperature
   TEBEG  =    0.0;   TEEND  =   0.0 temperature during run
   SMASS  =  -3.00    Nose mass-parameter (am)
   estimated Nose-frequenzy (Omega)   =  0.10E-29 period in steps =****** mass=  -0.209E-26a.u.
   SCALEE = 1.0000    scale energy and forces
   NPACO  =    256;   APACO  = 16.0  distance and # of slots for P.C.
   PSTRESS=    0.0 pullay stress

  Mass of Ions in am
   POMASS =  24.30 16.00  1.00
  Ionic Valenz
   ZVAL   =   2.00  6.00  1.00
  Atomic Wigner-Seitz radii
   RWIGS  =  -1.00 -1.00 -1.00
  virtual crystal weights 
   VCA    =   1.00  1.00  1.00
   NELECT =     138.0000    total number of electrons
   NUPDOWN=      -1.0000    fix difference up-down

 DOS related values:
   EMIN   =  10.00;   EMAX   =-10.00  energy-range for DOS
   EFERMI =   0.00
   ISMEAR =    -5;   SIGMA  =   0.20  broadening in eV -4-tet -1-fermi 0-gaus

 Electronic relaxation 2 (details)
   IALGO  =     48    algorithm
   LDIAG  =      T    sub-space diagonalisation (order eigenvalues)
   LSUBROT=      F    optimize rotation matrix (better conditioning)
   TURBO    =      0    0=normal 1=particle mesh
   IRESTART =      0    0=no restart 2=restart with 2 vectors
   NREBOOT  =      0    no. of reboots
   NMIN     =      0    reboot dimension
   EREF     =   0.00    reference energy to select bands
   IMIX   =      4    mixing-type and parameters
     AMIX     =   0.40;   BMIX     =  1.00
     AMIX_MAG =   1.60;   BMIX_MAG =  1.00
     AMIN     =   0.10
     WC   =   100.;   INIMIX=   1;  MIXPRE=   1;  MAXMIX= -45

 Intra band minimization:
   WEIMIN = 0.0000     energy-eigenvalue tresh-hold
   EBREAK =  0.12E-07  absolut break condition
   DEPER  =   0.30     relativ break condition  

   TIME   =   0.40     timestep for ELM

  volume/ion in A,a.u.               =      40.95       276.36
  Fermi-wavevector in a.u.,A,eV,Ry     =   0.616828  1.165635  5.176694  0.380476
  Thomas-Fermi vector in A             =   1.674695
 
 Write flags
   LWAVE        =      F    write WAVECAR
   LDOWNSAMPLE  =      F    k-point downsampling of WAVECAR
   LCHARG       =      T    write CHGCAR
   LVTOT        =      F    write LOCPOT, total local potential
   LVHAR        =      T    write LOCPOT, Hartree potential only
   LELF         =      F    write electronic localiz. function (ELF)
   LORBIT       =      0    0 simple, 1 ext, 2 COOP (PROOUT), +10 PAW based schemes


 Dipole corrections
   LMONO  =      F    monopole corrections only (constant potential shift)
   LDIPOL =      T    correct potential (dipole corrections)
   IDIPOL =      3    1-x, 2-y, 3-z, 4-all directions 
   EPSILON=  1.0000000 bulk dielectric constant

 Exchange correlation treatment:
   GGA     =    BO    GGA type
   LEXCH   =    42    internal setting for exchange type
   VOSKOWN=      0    Vosko Wilk Nusair interpolation
   LHFCALC =     F    Hartree Fock is set to
   LHFONE  =     F    Hartree Fock one center treatment
   AEXX    =    0.0000 exact exchange contribution

 vdW DFT:
   LUSE_VDW   =     T    switch on vdW DFT
   Zab_VDW    =-.8491    correlation parameter
   PARAM1     =0.1833
   PARAM2     =0.2200
   PARAM3     =0.0000
   -- rVV10 --
   BPARAM     = 6.3000
   CPARAM     = 0.0093

 Linear response parameters
   LEPSILON=     F    determine dielectric tensor
   LRPA    =     F    only Hartree local field effects (RPA)
   LNABLA  =     F    use nabla operator in PAW spheres
   LVEL    =     F    velocity operator in full k-point grid
   LINTERFAST=   F  fast interpolation
   KINTER  =     0    interpolate to denser k-point grid
   CSHIFT  =0.1000    complex shift for real part using Kramers Kronig
   OMEGAMAX=  -1.0    maximum frequency
   DEG_THRESHOLD= 0.2000000E-02 threshold for treating states as degnerate
   RTIME   =   -0.100 relaxation time in fs
  (WPLASMAI=    0.000 imaginary part of plasma frequency in eV, 0.658/RTIME)
   DFIELD  = 0.0000000 0.0000000 0.0000000 field for delta impulse in time
 
 Orbital magnetization related:
   ORBITALMAG=     F  switch on orbital magnetization
   LCHIMAG   =     F  perturbation theory with respect to B field
   DQ        =  0.001000  dq finite difference perturbation B field
   LLRAUG    =     F  two centre corrections for induced B field



--------------------------------------------------------------------------------------------------------


 Static calculation
 charge density and potential will be updated during run
 non-spin polarized calculation
 RMM-DIIS sequential band-by-band
 perform sub-space diagonalisation
    before iterative eigenvector-optimisation
 modified Broyden-mixing scheme, WC =      100.0
 initial mixing is a Kerker type mixing with AMIX =  0.4000 and BMIX =      1.0000
 Hartree-type preconditioning will be used
 using additional bands           33
 real space projection scheme for non local part
 use partial core corrections
 calculate Harris-corrections to forces 
   (improved forces if not selfconsistent)
 use gradient corrections 
 use of overlap-Matrix (Vanderbilt PP)
 Fermi weights with tetrahedron method with Bloechl corrections


--------------------------------------------------------------------------------------------------------


  energy-cutoff  :      520.00
  volume of cell :     2579.96
      direct lattice vectors                 reciprocal lattice vectors
     9.555752754  0.000000000  0.000000000     0.104649003  0.060419130  0.000000000
    -4.777876377  8.275524637  0.000000000     0.000000000  0.120838260  0.000000000
     0.000000000  0.000000000 32.625095367     0.000000000  0.000000000  0.030651251

  length of vectors
     9.555752754  9.555752754 32.625095367     0.120838260  0.120838260  0.030651251


 
 k-points in units of 2pi/SCALE and weight: Auto                                    
   0.00000000  0.00000000  0.00000000       0.111
   0.03488300  0.02013971  0.00000000       0.222
   0.00000000  0.04027942  0.00000000       0.222
   0.03488300  0.06041913  0.00000000       0.222
  -0.03488300  0.02013971  0.00000000       0.222
 
 k-points in reciprocal lattice and weights: Auto                                    
   0.00000000  0.00000000  0.00000000       0.111
   0.33333333 -0.00000000  0.00000000       0.222
   0.00000000  0.33333333  0.00000000       0.222
   0.33333333  0.33333333  0.00000000       0.222
  -0.33333333  0.33333333  0.00000000       0.222
 
 position of ions in fractional coordinates (direct lattice) 
   0.00000000  0.00000000  0.00000000
   0.99743091  0.99913719  0.15854981
   0.99774045  0.00401705  0.32958637
   0.00000001  0.33333336  0.00000000
   0.99874958  0.33451420  0.15732467
   0.98838392  0.33299554  0.31147397
   0.00000002  0.66666672  0.00000000
   0.99721553  0.66700290  0.15813416
   0.00168269  0.67236819  0.31500802
   0.33333334  0.00000000  0.00000000
   0.33077984  0.99949202  0.15769135
   0.32608188  0.99677778  0.31160937
   0.33333335  0.33333336  0.00000000
   0.33125344  0.33228313  0.15706061
   0.31623285  0.32056765  0.31119214
   0.33333336  0.66666672  0.00000000
   0.33095960  0.66678256  0.15827268
   0.31601228  0.66774520  0.33078020
   0.66666668  0.00000000  0.00000000
   0.66475753  0.99855512  0.15775143
   0.66399078  0.00868025  0.31375995
   0.66666668  0.33333336  0.00000000
   0.66478960  0.33529507  0.15867491
   0.65886269  0.32322598  0.32709706
   0.66666670  0.66666672  0.00000000
   0.66648689  0.66691700  0.15892082
   0.66645781  0.67370651  0.32287925
   0.11111113  0.22222222  0.07982145
   0.10481404  0.22081009  0.23535376
   0.11111114  0.55555561  0.07982145
   0.11153087  0.55871488  0.23664425
   0.11111116  0.88888894  0.07982145
   0.10569560  0.88962357  0.23603401
   0.44444450  0.22222222  0.07982145
   0.44371269  0.22425585  0.23623825
   0.44444450  0.55555561  0.07982145
   0.44207581  0.55602292  0.23546317
   0.44444451  0.88888894  0.07982145
   0.44078340  0.88462079  0.23657554
   0.77777779  0.22222222  0.07982145
   0.77195064  0.22193945  0.23470263
   0.77777781  0.55555561  0.07982145
   0.76958556  0.55149644  0.24108476
   0.77777784  0.88888894  0.07982145
   0.77565678  0.88702446  0.24011716
   0.98708744  0.99813234  0.39416794
   0.26353542  0.99366246  0.41721661
   0.90937106  0.23487682  0.41574400
   0.62680847  0.36400313  0.38934946
   0.63671534  0.63923723  0.38418541
   0.37630392  0.65637814  0.39124315
   0.96614185  0.08065245  0.40686430
   0.08453738  0.00482257  0.40734355
   0.36090918  0.09801129  0.41194365
   0.25338304  0.92968334  0.39240335
   0.00939767  0.33930136  0.41382363
   0.86048410  0.22129739  0.38806320
   0.63165048  0.47512681  0.39160120
   0.70324496  0.36325279  0.40914003
   0.72872187  0.72437282  0.39908084
   0.43055640  0.55257318  0.31717282
   0.38419387  0.73692937  0.41086690
   0.48249352  0.65122952  0.39272485
 
 position of ions in cartesian coordinates  (Angst):
   0.00000000  0.00000000  0.00000000
   4.75744920  8.26838441  5.17270270
   9.51496807  0.03324321 10.75278673
  -1.59262550  2.75850844  0.00000000
   7.94553659  2.76828047  5.13273229
   7.85374083  2.75571276 10.16186810
  -3.18525100  5.51701689  0.00000000
   6.34228765  5.51979892  5.15914204
  -3.19641268  5.56419953 10.27716683
   3.18525100  0.00000000  0.00000000
  -1.61459895  8.27132080  5.14469530
  -1.64652314  8.24885904 10.16628540
   1.59262550  2.75850844  0.00000000
   1.57776832  2.74981720  5.12411728
   1.49021032  2.65286552 10.15267326
  -0.00000001  5.51701689  0.00000000
  -0.02323650  5.51797551  5.16366114
  -0.17066880  5.52594186 10.79173562
   6.37050200  0.00000000  0.00000000
   1.58128570  8.26356749  5.14665557
   6.30345852  0.07183365 10.23644817
   4.77787638  2.75850844  0.00000000
   4.75056668  2.77474264  5.17678419
   4.75159516  2.67486455 10.67157272
   3.18525100  5.51701689  0.00000000
   3.18233697  5.51908809  5.18480683
   3.14961965  5.57527482 10.53396643
   0.00000017  1.83900547  2.60418248
  -0.05342631  1.82731936  7.67843895
  -1.59262550  4.59751415  2.60418248
  -1.60370920  4.62365874  7.72054128
  -3.18525076  7.35602236  2.60418248
  -3.24051044  7.36210181  7.70063215
   3.18525147  1.83900547  2.60418248
   3.16854203  1.85583481  7.70729549
   1.59262574  4.59751415  2.60418248
   1.56775833  4.60138141  7.68200824
   0.00000039  7.35602236  2.60418248
  -0.01459156  7.32070113  7.71829971
   6.37050200  1.83900547  2.60418248
   6.31617019  1.83666536  7.65719565
   4.77787638  4.59751415  2.60418248
   4.71898748  4.56392241  7.86541328
   3.18525124  7.35602236  2.60418248
   3.17389117  7.34059280  7.83384532
   4.66341059  8.26006877 12.85976661
  -2.22931705  8.22307815 13.61173183
   7.56751255  1.94372895 13.56368755
   4.25046478  3.01231690 12.70256331
   3.03009793  5.29002344 12.53408559
   0.45977357  5.43187349 12.76434507
   8.84686522  0.66744131 13.27398673
   0.78477661  0.03990931 13.28962209
   2.98047309  0.81109482 13.43970092
  -2.02064639  7.69361740 12.80219667
  -1.53133816  2.80789678 13.50103530
   7.16524176  1.83135204 12.66059888
   3.76579870  3.93192358 12.77602647
   4.98445808  3.00610738 13.34823250
   3.50252218  5.99456515 13.02005047
   1.47416413  4.57283293 10.34779360
   0.15030425  6.09847714 13.40457183
   1.49909462  5.38926597 12.81268568
 


--------------------------------------------------------------------------------------------------------


 k-point  1 :   0.0000 0.0000 0.0000  plane waves:   69403
 k-point  2 :   0.3333-0.0000 0.0000  plane waves:   69509
 k-point  3 :   0.0000 0.3333 0.0000  plane waves:   69509
 k-point  4 :   0.3333 0.3333 0.0000  plane waves:   69474
 k-point  5 :  -0.3333 0.3333 0.0000  plane waves:   69509

 maximum and minimum number of plane-waves per node :      2924     2870

 maximum number of plane-waves:     69509
 maximum index in each direction: 
   IXMAX=   18   IYMAX=   17   IZMAX=   60
   IXMIN=  -18   IYMIN=  -18   IZMIN=  -60


 real space projection operators:
  total allocation   :      22592.60 KBytes
  max/ min on nodes  :       1313.30        536.18


 parallel 3D FFT for wavefunctions:
    minimum data exchange during FFTs selected (reduces bandwidth)
 parallel 3D FFT for charge:
    minimum data exchange during FFTs selected (reduces bandwidth)


 total amount of memory used by VASP MPI-rank0    62220. kBytes
=======================================================================

   base      :      30000. kBytes
   nonlr-proj:       6317. kBytes
   fftplans  :       6459. kBytes
   grid      :      11407. kBytes
   one-center:         24. kBytes
   wavefun   :       8013. kBytes
 
     INWAV:  cpu time    0.0001: real time    0.0008
 Broyden mixing: mesh for mixing (old mesh)
   NGX = 35   NGY = 35   NGZ =121
  (NGX  =144   NGY  =144   NGZ  =500)
  gives a total of 148225 points

 initial charge density was supplied:
 charge density of overlapping atoms calculated
 number of electron     138.0000000 magnetization 
 keeping initial charge density in first step


--------------------------------------------------------------------------------------------------------


 Maximum index for non-local projection operator          297
 Maximum index for augmentation-charges          837 (set IRDMAX)


--------------------------------------------------------------------------------------------------------


 First call to EWALD:  gamma=   0.129
 Maximum number of real-space cells 4x 4x 1
 Maximum number of reciprocal cells 2x 2x 6

    FEWALD:  cpu time    0.0024: real time    0.0024


--------------------------------------- Iteration      1(   1)  ---------------------------------------


vdW kernel read from vdw_kernel.bindat
  0.0000  0.2424  0.5071  0.7962  1.1119  1.4567  1.8333  2.2446  2.6937  3.1842
  3.7199  4.3049  4.9438  5.6415  6.4036  7.2358  8.1446  9.1372 10.2212 11.4050
 12.6979 14.1099 15.6519 17.3360 19.1751 21.1837 23.3773 25.7729 28.3892 31.2465
 34.3669 37.7748 41.4965 45.5611 50.0000
 
    POTLOK:  cpu time    5.6220: real time    5.7296
    SETDIJ:  cpu time    0.1348: real time    0.1354
    EDDIAG:  cpu time    0.4846: real time    0.4856
  RMM-DIIS:  cpu time    1.0483: real time    1.0486
    ORTHCH:  cpu time    0.0717: real time    0.0717
 BZINTS: Fermi energy:  9.561498;138.000000 electrons
         Band energy: 210.630105;  BLOECHL correction: -0.165983
       DOS:  cpu time    0.0030: real time    0.0030
    --------------------------------------------
      LOOP:  cpu time    7.3643: real time    7.4737

 eigenvalue-minimisations  :   510
 total energy-change (2. order) : 0.1240540E+04  (-0.2793977E+04)
 number of electron     138.0000000 magnetization 
 augmentation part      138.0000000 magnetization 

 DIPCOR: dipole corrections for dipol
 direction  3 min pos   356,
 dipolmoment           0.000000      0.000000     -0.000385 electrons x Angstroem
 Tr[quadrupol]     -1919.935999

 energy correction for charged system         0.000000 eV
 dipol+quadrupol energy correction           -0.000000 eV
 added-field ion interaction          0.003879 eV  (added to PSCEN)


 Free energy of the ion-electron system (eV)
  ---------------------------------------------------
  alpha Z        PSCENC =        63.16494263
  Ewald energy   TEWEN  =     13031.30337775
  -Hartree energ DENC   =    -16257.77422111
  -exchange      EXHF   =         0.00000000
  -V(xc)+E(xc)   XCENC  =     -2050.91769181
  PAW double counting   =      5135.15659847    -2719.01140655
  entropy T*S    EENTRO =         0.00000000
  eigenvalues    EBANDS =       210.63010494
  atomic energy  EATOM  =      3827.98814510
  Solvation  Ediel_sol  =         0.00000000
  ---------------------------------------------------
  free energy    TOTEN  =      1240.53984943 eV

  energy without entropy =     1240.53984943  energy(sigma->0) =     1240.53984943


--------------------------------------------------------------------------------------------------------




--------------------------------------- Iteration      1(   2)  ---------------------------------------


    EDDIAG:  cpu time    0.4855: real time    0.5089
  RMM-DIIS:  cpu time    1.0476: real time    1.0477
    ORTHCH:  cpu time    0.0720: real time    0.0720
 BZINTS: Fermi energy:  2.141054;138.000000 electrons
         Band energy:-484.511277;  BLOECHL correction: -0.310595
       DOS:  cpu time    0.0037: real time    0.0037
    --------------------------------------------
      LOOP:  cpu time    1.6088: real time    1.6324

 eigenvalue-minimisations  :   510
 total energy-change (2. order) :-0.6951414E+03  (-0.7546962E+03)
 number of electron     138.0000000 magnetization 
 augmentation part      138.0000000 magnetization 

 DIPCOR: dipole corrections for dipol
 direction  3 min pos   356,
 dipolmoment           0.000000      0.000000     -0.000385 electrons x Angstroem
 Tr[quadrupol]     -1919.935999

 energy correction for charged system         0.000000 eV
 dipol+quadrupol energy correction           -0.000000 eV
 added-field ion interaction          0.003879 eV  (added to PSCEN)


 Free energy of the ion-electron system (eV)
  ---------------------------------------------------
  alpha Z        PSCENC =        63.16494263
  Ewald energy   TEWEN  =     13031.30337775
  -Hartree energ DENC   =    -16257.77422111
  -exchange      EXHF   =         0.00000000
  -V(xc)+E(xc)   XCENC  =     -2050.91769181
  PAW double counting   =      5135.15659847    -2719.01140655
  entropy T*S    EENTRO =         0.00000000
  eigenvalues    EBANDS =      -484.51127707
  atomic energy  EATOM  =      3827.98814510
  Solvation  Ediel_sol  =         0.00000000
  ---------------------------------------------------
  free energy    TOTEN  =       545.39846742 eV

  energy without entropy =      545.39846742  energy(sigma->0) =      545.39846742


--------------------------------------------------------------------------------------------------------




--------------------------------------- Iteration      1(   3)  ---------------------------------------


    EDDIAG:  cpu time    0.4886: real time    0.5116
  RMM-DIIS:  cpu time    1.0511: real time    1.0514
    ORTHCH:  cpu time    0.0719: real time    0.0719
 BZINTS: Fermi energy:  0.415898;138.000000 electrons
         Band energy:-719.387367;  BLOECHL correction: -0.415465
       DOS:  cpu time    0.0032: real time    0.0032
    --------------------------------------------
      LOOP:  cpu time    1.6147: real time    1.6381

 eigenvalue-minimisations  :   510
 total energy-change (2. order) :-0.2348761E+03  (-0.2985944E+03)
 number of electron     138.0000000 magnetization 
 augmentation part      138.0000000 magnetization 

 DIPCOR: dipole corrections for dipol
 direction  3 min pos   356,
 dipolmoment           0.000000      0.000000     -0.000385 electrons x Angstroem
 Tr[quadrupol]     -1919.935999

 energy correction for charged system         0.000000 eV
 dipol+quadrupol energy correction           -0.000000 eV
 added-field ion interaction          0.003879 eV  (added to PSCEN)


 Free energy of the ion-electron system (eV)
  ---------------------------------------------------
  alpha Z        PSCENC =        63.16494263
  Ewald energy   TEWEN  =     13031.30337775
  -Hartree energ DENC   =    -16257.77422111
  -exchange      EXHF   =         0.00000000
  -V(xc)+E(xc)   XCENC  =     -2050.91769181
  PAW double counting   =      5135.15659847    -2719.01140655
  entropy T*S    EENTRO =         0.00000000
  eigenvalues    EBANDS =      -719.38736722
  atomic energy  EATOM  =      3827.98814510
  Solvation  Ediel_sol  =         0.00000000
  ---------------------------------------------------
  free energy    TOTEN  =       310.52237727 eV

  energy without entropy =      310.52237727  energy(sigma->0) =      310.52237727


--------------------------------------------------------------------------------------------------------




--------------------------------------- Iteration      1(   4)  ---------------------------------------


    EDDIAG:  cpu time    0.4983: real time    0.5136
  RMM-DIIS:  cpu time    1.0486: real time    1.0506
    ORTHCH:  cpu time    0.0718: real time    0.0718
 BZINTS: Fermi energy: -0.669975;138.000000 electrons
         Band energy:-890.288877;  BLOECHL correction: -0.096968
       DOS:  cpu time    0.0028: real time    0.0028
    --------------------------------------------
      LOOP:  cpu time    1.6215: real time    1.6389

 eigenvalue-minimisations  :   510
 total energy-change (2. order) :-0.1709015E+03  (-0.1471350E+03)
 number of electron     138.0000000 magnetization 
 augmentation part      138.0000000 magnetization 

 DIPCOR: dipole corrections for dipol
 direction  3 min pos   356,
 dipolmoment           0.000000      0.000000     -0.000385 electrons x Angstroem
 Tr[quadrupol]     -1919.935999

 energy correction for charged system         0.000000 eV
 dipol+quadrupol energy correction           -0.000000 eV
 added-field ion interaction          0.003879 eV  (added to PSCEN)


 Free energy of the ion-electron system (eV)
  ---------------------------------------------------
  alpha Z        PSCENC =        63.16494263
  Ewald energy   TEWEN  =     13031.30337775
  -Hartree energ DENC   =    -16257.77422111
  -exchange      EXHF   =         0.00000000
  -V(xc)+E(xc)   XCENC  =     -2050.91769181
  PAW double counting   =      5135.15659847    -2719.01140655
  entropy T*S    EENTRO =         0.00000000
  eigenvalues    EBANDS =      -890.28887740
  atomic energy  EATOM  =      3827.98814510
  Solvation  Ediel_sol  =         0.00000000
  ---------------------------------------------------
  free energy    TOTEN  =       139.62086709 eV

  energy without entropy =      139.62086709  energy(sigma->0) =      139.62086709


--------------------------------------------------------------------------------------------------------




--------------------------------------- Iteration      1(   5)  ---------------------------------------


    EDDIAG:  cpu time    0.4861: real time    0.5096
  RMM-DIIS:  cpu time    1.0637: real time    1.0653
    ORTHCH:  cpu time    0.0723: real time    0.0723
 BZINTS: Fermi energy: -1.307556;138.000000 electrons
         Band energy:***********;  BLOECHL correction: -0.095172
       DOS:  cpu time    0.0033: real time    0.0033
    --------------------------------------------
      LOOP:  cpu time    1.6254: real time    1.6505

 eigenvalue-minimisations  :   510
 total energy-change (2. order) :-0.1148366E+03  (-0.9166526E+02)
 number of electron     138.0000000 magnetization 
 augmentation part      138.0000000 magnetization 

 DIPCOR: dipole corrections for dipol
 direction  3 min pos   356,
 dipolmoment           0.000000      0.000000     -0.000385 electrons x Angstroem
 Tr[quadrupol]     -1919.935999

 energy correction for charged system         0.000000 eV
 dipol+quadrupol energy correction           -0.000000 eV
 added-field ion interaction          0.003879 eV  (added to PSCEN)


 Free energy of the ion-electron system (eV)
  ---------------------------------------------------
  alpha Z        PSCENC =        63.16494263
  Ewald energy   TEWEN  =     13031.30337775
  -Hartree energ DENC   =    -16257.77422111
  -exchange      EXHF   =         0.00000000
  -V(xc)+E(xc)   XCENC  =     -2050.91769181
  PAW double counting   =      5135.15659847    -2719.01140655
  entropy T*S    EENTRO =         0.00000000
  eigenvalues    EBANDS =     -1005.12547486
  atomic energy  EATOM  =      3827.98814510
  Solvation  Ediel_sol  =         0.00000000
  ---------------------------------------------------
  free energy    TOTEN  =        24.78426963 eV

  energy without entropy =       24.78426963  energy(sigma->0) =       24.78426963


--------------------------------------------------------------------------------------------------------




--------------------------------------- Iteration      1(   6)  ---------------------------------------


    EDDIAG:  cpu time    0.4920: real time    0.5155
  RMM-DIIS:  cpu time    1.0608: real time    1.0610
    ORTHCH:  cpu time    0.0723: real time    0.0723
 BZINTS: Fermi energy: -1.359873;138.000000 electrons
         Band energy:***********;  BLOECHL correction: -0.028778
       DOS:  cpu time    0.0030: real time    0.0030
    --------------------------------------------
      LOOP:  cpu time    1.6281: real time    1.6518

 eigenvalue-minimisations  :   510
 total energy-change (2. order) :-0.6604932E+02  (-0.4963574E+02)
 number of electron     138.0000000 magnetization 
 augmentation part      138.0000000 magnetization 

 DIPCOR: dipole corrections for dipol
 direction  3 min pos   356,
 dipolmoment           0.000000      0.000000     -0.000385 electrons x Angstroem
 Tr[quadrupol]     -1919.935999

 energy correction for charged system         0.000000 eV
 dipol+quadrupol energy correction           -0.000000 eV
 added-field ion interaction          0.003879 eV  (added to PSCEN)


 Free energy of the ion-electron system (eV)
  ---------------------------------------------------
  alpha Z        PSCENC =        63.16494263
  Ewald energy   TEWEN  =     13031.30337775
  -Hartree energ DENC   =    -16257.77422111
  -exchange      EXHF   =         0.00000000
  -V(xc)+E(xc)   XCENC  =     -2050.91769181
  PAW double counting   =      5135.15659847    -2719.01140655
  entropy T*S    EENTRO =         0.00000000
  eigenvalues    EBANDS =     -1071.17479625
  atomic energy  EATOM  =      3827.98814510
  Solvation  Ediel_sol  =         0.00000000
  ---------------------------------------------------
  free energy    TOTEN  =       -41.26505176 eV

  energy without entropy =      -41.26505176  energy(sigma->0) =      -41.26505176


--------------------------------------------------------------------------------------------------------




--------------------------------------- Iteration      1(   7)  ---------------------------------------


    EDDIAG:  cpu time    0.4896: real time    0.5126
  RMM-DIIS:  cpu time    1.0475: real time    1.0477
    ORTHCH:  cpu time    0.0714: real time    0.0714
 BZINTS: Fermi energy: -1.430892;138.000000 electrons
         Band energy:***********;  BLOECHL correction: -0.051361
       DOS:  cpu time    0.0030: real time    0.0030
    --------------------------------------------
      LOOP:  cpu time    1.6116: real time    1.6348

 eigenvalue-minimisations  :   510
 total energy-change (2. order) :-0.2877918E+02  (-0.2163875E+02)
 number of electron     138.0000000 magnetization 
 augmentation part      138.0000000 magnetization 

 DIPCOR: dipole corrections for dipol
 direction  3 min pos   356,
 dipolmoment           0.000000      0.000000     -0.000385 electrons x Angstroem
 Tr[quadrupol]     -1919.935999

 energy correction for charged system         0.000000 eV
 dipol+quadrupol energy correction           -0.000000 eV
 added-field ion interaction          0.003879 eV  (added to PSCEN)


 Free energy of the ion-electron system (eV)
  ---------------------------------------------------
  alpha Z        PSCENC =        63.16494263
  Ewald energy   TEWEN  =     13031.30337775
  -Hartree energ DENC   =    -16257.77422111
  -exchange      EXHF   =         0.00000000
  -V(xc)+E(xc)   XCENC  =     -2050.91769181
  PAW double counting   =      5135.15659847    -2719.01140655
  entropy T*S    EENTRO =         0.00000000
  eigenvalues    EBANDS =     -1099.95397647
  atomic energy  EATOM  =      3827.98814510
  Solvation  Ediel_sol  =         0.00000000
  ---------------------------------------------------
  free energy    TOTEN  =       -70.04423198 eV

  energy without entropy =      -70.04423198  energy(sigma->0) =      -70.04423198


--------------------------------------------------------------------------------------------------------




--------------------------------------- Iteration      1(   8)  ---------------------------------------


    EDDIAG:  cpu time    0.4957: real time    0.5109
  RMM-DIIS:  cpu time    1.0487: real time    1.0494
    ORTHCH:  cpu time    0.0708: real time    0.0709
 BZINTS: Fermi energy: -1.470977;138.000000 electrons
         Band energy:***********;  BLOECHL correction: -0.058916
       DOS:  cpu time    0.0031: real time    0.0031
    --------------------------------------------
      LOOP:  cpu time    1.6184: real time    1.6343

 eigenvalue-minimisations  :   510
 total energy-change (2. order) :-0.8118532E+01  (-0.6547576E+01)
 number of electron     138.0000000 magnetization 
 augmentation part      138.0000000 magnetization 

 DIPCOR: dipole corrections for dipol
 direction  3 min pos   356,
 dipolmoment           0.000000      0.000000     -0.000385 electrons x Angstroem
 Tr[quadrupol]     -1919.935999

 energy correction for charged system         0.000000 eV
 dipol+quadrupol energy correction           -0.000000 eV
 added-field ion interaction          0.003879 eV  (added to PSCEN)


 Free energy of the ion-electron system (eV)
  ---------------------------------------------------
  alpha Z        PSCENC =        63.16494263
  Ewald energy   TEWEN  =     13031.30337775
  -Hartree energ DENC   =    -16257.77422111
  -exchange      EXHF   =         0.00000000
  -V(xc)+E(xc)   XCENC  =     -2050.91769181
  PAW double counting   =      5135.15659847    -2719.01140655
  entropy T*S    EENTRO =         0.00000000
  eigenvalues    EBANDS =     -1108.07250800
  atomic energy  EATOM  =      3827.98814510
  Solvation  Ediel_sol  =         0.00000000
  ---------------------------------------------------
  free energy    TOTEN  =       -78.16276350 eV

  energy without entropy =      -78.16276350  energy(sigma->0) =      -78.16276350


--------------------------------------------------------------------------------------------------------




--------------------------------------- Iteration      1(   9)  ---------------------------------------


    EDDIAG:  cpu time    0.4877: real time    0.5124
  RMM-DIIS:  cpu time    2.6941: real time    2.6966
    ORTHCH:  cpu time    0.0714: real time    0.0714
 BZINTS: Fermi energy: -1.510044;138.000000 electrons
         Band energy:***********;  BLOECHL correction: -0.077694
       DOS:  cpu time    0.0031: real time    0.0031
    --------------------------------------------
      LOOP:  cpu time    3.2563: real time    3.2835

 eigenvalue-minimisations  :  1473
 total energy-change (2. order) :-0.2469841E+01  (-0.2340122E+01)
 number of electron     138.0000000 magnetization 
 augmentation part      138.0000000 magnetization 

 DIPCOR: dipole corrections for dipol
 direction  3 min pos   356,
 dipolmoment           0.000000      0.000000     -0.000385 electrons x Angstroem
 Tr[quadrupol]     -1919.935999

 energy correction for charged system         0.000000 eV
 dipol+quadrupol energy correction           -0.000000 eV
 added-field ion interaction          0.003879 eV  (added to PSCEN)


 Free energy of the ion-electron system (eV)
  ---------------------------------------------------
  alpha Z        PSCENC =        63.16494263
  Ewald energy   TEWEN  =     13031.30337775
  -Hartree energ DENC   =    -16257.77422111
  -exchange      EXHF   =         0.00000000
  -V(xc)+E(xc)   XCENC  =     -2050.91769181
  PAW double counting   =      5135.15659847    -2719.01140655
  entropy T*S    EENTRO =         0.00000000
  eigenvalues    EBANDS =     -1110.54234862
  atomic energy  EATOM  =      3827.98814510
  Solvation  Ediel_sol  =         0.00000000
  ---------------------------------------------------
  free energy    TOTEN  =       -80.63260413 eV

  energy without entropy =      -80.63260413  energy(sigma->0) =      -80.63260413


--------------------------------------------------------------------------------------------------------




--------------------------------------- Iteration      1(  10)  ---------------------------------------


    EDDIAG:  cpu time    0.4884: real time    0.5110
  RMM-DIIS:  cpu time    3.2036: real time    3.2043
    ORTHCH:  cpu time    0.0717: real time    0.0718
 BZINTS: Fermi energy: -1.512856;138.000000 electrons
         Band energy:***********;  BLOECHL correction: -0.067566
       DOS:  cpu time    0.0028: real time    0.0028
    --------------------------------------------
      LOOP:  cpu time    3.7665: real time    3.7899

 eigenvalue-minimisations  :  1760
 total energy-change (2. order) :-0.2951264E+00  (-0.3166493E+00)
 number of electron     138.0000000 magnetization 
 augmentation part      138.0000000 magnetization 

 DIPCOR: dipole corrections for dipol
 direction  3 min pos   356,
 dipolmoment           0.000000      0.000000     -0.000385 electrons x Angstroem
 Tr[quadrupol]     -1919.935999

 energy correction for charged system         0.000000 eV
 dipol+quadrupol energy correction           -0.000000 eV
 added-field ion interaction          0.003879 eV  (added to PSCEN)


 Free energy of the ion-electron system (eV)
  ---------------------------------------------------
  alpha Z        PSCENC =        63.16494263
  Ewald energy   TEWEN  =     13031.30337775
  -Hartree energ DENC   =    -16257.77422111
  -exchange      EXHF   =         0.00000000
  -V(xc)+E(xc)   XCENC  =     -2050.91769181
  PAW double counting   =      5135.15659847    -2719.01140655
  entropy T*S    EENTRO =         0.00000000
  eigenvalues    EBANDS =     -1110.83747502
  atomic energy  EATOM  =      3827.98814510
  Solvation  Ediel_sol  =         0.00000000
  ---------------------------------------------------
  free energy    TOTEN  =       -80.92773053 eV

  energy without entropy =      -80.92773053  energy(sigma->0) =      -80.92773053


--------------------------------------------------------------------------------------------------------




--------------------------------------- Iteration      1(  11)  ---------------------------------------


    EDDIAG:  cpu time    0.4912: real time    0.5140
  RMM-DIIS:  cpu time    3.1215: real time    3.1221
    ORTHCH:  cpu time    0.0708: real time    0.0708
 BZINTS: Fermi energy: -1.513317;138.000000 electrons
         Band energy:***********;  BLOECHL correction: -0.067340
       DOS:  cpu time    0.0031: real time    0.0031
    --------------------------------------------
      LOOP:  cpu time    3.6866: real time    3.7100

 eigenvalue-minimisations  :  1721
 total energy-change (2. order) :-0.2387531E-03  (-0.1698428E-01)
 number of electron     138.0000000 magnetization 
 augmentation part      138.0000000 magnetization 

 DIPCOR: dipole corrections for dipol
 direction  3 min pos   356,
 dipolmoment           0.000000      0.000000     -0.000385 electrons x Angstroem
 Tr[quadrupol]     -1919.935999

 energy correction for charged system         0.000000 eV
 dipol+quadrupol energy correction           -0.000000 eV
 added-field ion interaction          0.003879 eV  (added to PSCEN)


 Free energy of the ion-electron system (eV)
  ---------------------------------------------------
  alpha Z        PSCENC =        63.16494263
  Ewald energy   TEWEN  =     13031.30337775
  -Hartree energ DENC   =    -16257.77422111
  -exchange      EXHF   =         0.00000000
  -V(xc)+E(xc)   XCENC  =     -2050.91769181
  PAW double counting   =      5135.15659847    -2719.01140655
  entropy T*S    EENTRO =         0.00000000
  eigenvalues    EBANDS =     -1110.83771377
  atomic energy  EATOM  =      3827.98814510
  Solvation  Ediel_sol  =         0.00000000
  ---------------------------------------------------
  free energy    TOTEN  =       -80.92796928 eV

  energy without entropy =      -80.92796928  energy(sigma->0) =      -80.92796928


--------------------------------------------------------------------------------------------------------




--------------------------------------- Iteration      1(  12)  ---------------------------------------


    EDDIAG:  cpu time    0.4953: real time    0.5120
  RMM-DIIS:  cpu time    3.2821: real time    3.2847
    ORTHCH:  cpu time    0.0710: real time    0.0710
 BZINTS: Fermi energy: -1.513391;138.000000 electrons
         Band energy:***********;  BLOECHL correction: -0.067281
       DOS:  cpu time    0.0031: real time    0.0031
    CHARGE:  cpu time    0.1280: real time    0.1280
    MIXING:  cpu time    0.0037: real time    0.0037
    --------------------------------------------
      LOOP:  cpu time    3.9831: real time    4.0025

 eigenvalue-minimisations  :  1808
 total energy-change (2. order) :-0.2506430E-02  (-0.3500875E-02)
 number of electron     137.9999999 magnetization 
 augmentation part        5.2652538 magnetization 

 DIPCOR: dipole corrections for dipol
 direction  3 min pos   356,
 dipolmoment           0.000000      0.000000     -0.000385 electrons x Angstroem
 Tr[quadrupol]     -1919.935999

 energy correction for charged system         0.000000 eV
 dipol+quadrupol energy correction           -0.000000 eV
 added-field ion interaction          0.003879 eV  (added to PSCEN)


 Broyden mixing:
  rms(total) = 0.20086E+01    rms(broyden)= 0.20076E+01
  rms(prec ) = 0.21010E+01
  weight for this iteration     100.00

 Free energy of the ion-electron system (eV)
  ---------------------------------------------------
  alpha Z        PSCENC =        63.16494263
  Ewald energy   TEWEN  =     13031.30337775
  -Hartree energ DENC   =    -16257.77422111
  -exchange      EXHF   =         0.00000000
  -V(xc)+E(xc)   XCENC  =     -2050.91769181
  PAW double counting   =      5135.15659847    -2719.01140655
  entropy T*S    EENTRO =         0.00000000
  eigenvalues    EBANDS =     -1110.84022020
  atomic energy  EATOM  =      3827.98814510
  Solvation  Ediel_sol  =         0.00000000
  ---------------------------------------------------
  free energy    TOTEN  =       -80.93047571 eV

  energy without entropy =      -80.93047571  energy(sigma->0) =      -80.93047571


--------------------------------------------------------------------------------------------------------




--------------------------------------- Iteration      1(  13)  ---------------------------------------


    POTLOK:  cpu time    4.9262: real time    4.9536
    SETDIJ:  cpu time    0.1368: real time    0.1373
    EDDIAG:  cpu time    0.4785: real time    0.4791
  RMM-DIIS:  cpu time    2.6008: real time    2.6013
    ORTHCH:  cpu time    0.0706: real time    0.0706
 BZINTS: Fermi energy: -1.167190;138.000000 electrons
         Band energy:-924.434510;  BLOECHL correction: -0.075379
       DOS:  cpu time    0.0030: real time    0.0030
    CHARGE:  cpu time    0.1266: real time    0.1266
    MIXING:  cpu time    0.0035: real time    0.0036
    --------------------------------------------
      LOOP:  cpu time    8.3461: real time    8.3752

 eigenvalue-minimisations  :  1427
 total energy-change (2. order) : 0.9906480E+01  (-0.6024078E+01)
 number of electron     137.9999999 magnetization 
 augmentation part        4.4889809 magnetization 

 DIPCOR: dipole corrections for dipol
 direction  3 min pos   360,
 dipolmoment           0.000000      0.000000      0.559082 electrons x Angstroem
 Tr[quadrupol]     -1931.050700

 energy correction for charged system         0.000000 eV
 dipol+quadrupol energy correction           -0.010961 eV
 added-field ion interaction         -4.223308 eV  (added to PSCEN)


 Broyden mixing:
  rms(total) = 0.78072E+00    rms(broyden)= 0.78021E+00
  rms(prec ) = 0.10060E+01
  weight for this iteration     100.00

 eigenvalues of (default mixing * dielectric matrix)
  average eigenvalue GAMMA=   0.9546
  0.9546

 Free energy of the ion-electron system (eV)
  ---------------------------------------------------
  alpha Z        PSCENC =        58.92679385
  Ewald energy   TEWEN  =     13031.30337775
  -Hartree energ DENC   =    -16437.37515830
  -exchange      EXHF   =         0.00000000
  -V(xc)+E(xc)   XCENC  =     -2040.99371027
  PAW double counting   =      5557.42432529    -3143.86325896
  entropy T*S    EENTRO =         0.00000000
  eigenvalues    EBANDS =      -924.43450996
  atomic energy  EATOM  =      3827.98814510
  Solvation  Ediel_sol  =         0.00000000
  ---------------------------------------------------
  free energy    TOTEN  =       -71.02399549 eV

  energy without entropy =      -71.02399549  energy(sigma->0) =      -71.02399549


--------------------------------------------------------------------------------------------------------




--------------------------------------- Iteration      1(  14)  ---------------------------------------


    POTLOK:  cpu time    4.9568: real time    4.9939
    SETDIJ:  cpu time    0.1382: real time    0.1388
    EDDIAG:  cpu time    0.4899: real time    0.4904
  RMM-DIIS:  cpu time    2.9211: real time    2.9218
    ORTHCH:  cpu time    0.0706: real time    0.0706
 BZINTS: Fermi energy: -0.882742;138.000000 electrons
         Band energy:***********;  BLOECHL correction: -0.022209
       DOS:  cpu time    0.0031: real time    0.0031
    CHARGE:  cpu time    0.1232: real time    0.1232
    MIXING:  cpu time    0.0045: real time    0.0045
    --------------------------------------------
      LOOP:  cpu time    8.7075: real time    8.7464

 eigenvalue-minimisations  :  1613
 total energy-change (2. order) :-0.2514596E+02  (-0.1377914E+01)
 number of electron     137.9999999 magnetization 
 augmentation part        4.4611242 magnetization 

 DIPCOR: dipole corrections for dipol
 direction  3 min pos   374,
 dipolmoment           0.000000      0.000000     -2.006100 electrons x Angstroem
 Tr[quadrupol]     -1917.073374

 energy correction for charged system         0.000000 eV
 dipol+quadrupol energy correction           -0.141132 eV
 added-field ion interaction         -2.583446 eV  (added to PSCEN)


 Broyden mixing:
  rms(total) = 0.10600E+01    rms(broyden)= 0.10600E+01
  rms(prec ) = 0.31232E+01
  weight for this iteration     100.00

 eigenvalues of (default mixing * dielectric matrix)
  average eigenvalue GAMMA=   0.7344
  0.9662  0.5026

 Free energy of the ion-electron system (eV)
  ---------------------------------------------------
  alpha Z        PSCENC =        60.43648547
  Ewald energy   TEWEN  =     13031.30337775
  -Hartree energ DENC   =    -16385.13391941
  -exchange      EXHF   =         0.00000000
  -V(xc)+E(xc)   XCENC  =     -2038.97324358
  PAW double counting   =      5715.71569934    -3302.19305422
  entropy T*S    EENTRO =         0.00000000
  eigenvalues    EBANDS =     -1005.31344661
  atomic energy  EATOM  =      3827.98814510
  Solvation  Ediel_sol  =         0.00000000
  ---------------------------------------------------
  free energy    TOTEN  =       -96.16995615 eV

  energy without entropy =      -96.16995615  energy(sigma->0) =      -96.16995615


--------------------------------------------------------------------------------------------------------




--------------------------------------- Iteration      1(  15)  ---------------------------------------


    POTLOK:  cpu time    4.9720: real time    5.0001
    SETDIJ:  cpu time    0.1397: real time    0.1403
    EDDIAG:  cpu time    0.4804: real time    0.4821
  RMM-DIIS:  cpu time    2.7299: real time    2.7426
    ORTHCH:  cpu time    0.0748: real time    0.0748
 BZINTS: Fermi energy: -1.239015;138.000000 electrons
         Band energy:-921.828144;  BLOECHL correction: -0.081590
       DOS:  cpu time    0.0030: real time    0.0030
    CHARGE:  cpu time    0.1284: real time    0.1285
    MIXING:  cpu time    0.0038: real time    0.0038
    --------------------------------------------
      LOOP:  cpu time    8.5320: real time    8.5752

 eigenvalue-minimisations  :  1464
 total energy-change (2. order) : 0.2648549E+02  (-0.3265918E+00)
 number of electron     137.9999999 magnetization 
 augmentation part        4.3910634 magnetization 

 DIPCOR: dipole corrections for dipol
 direction  3 min pos   384,
 dipolmoment           0.000000      0.000000      0.125908 electrons x Angstroem
 Tr[quadrupol]     -1928.883085

 energy correction for charged system         0.000000 eV
 dipol+quadrupol energy correction           -0.000556 eV
 added-field ion interaction          0.957323 eV  (added to PSCEN)


 Broyden mixing:
  rms(total) = 0.49212E+00    rms(broyden)= 0.49209E+00
  rms(prec ) = 0.54894E+00
  weight for this iteration     100.00

 eigenvalues of (default mixing * dielectric matrix)
  average eigenvalue GAMMA=   1.1117
  1.9916  1.1942  0.1492

 Free energy of the ion-electron system (eV)
  ---------------------------------------------------
  alpha Z        PSCENC =        64.11783057
  Ewald energy   TEWEN  =     13031.30337775
  -Hartree energ DENC   =    -16446.31089940
  -exchange      EXHF   =         0.00000000
  -V(xc)+E(xc)   XCENC  =     -2038.48436296
  PAW double counting   =      5754.81238174    -3341.28279896
  entropy T*S    EENTRO =         0.00000000
  eigenvalues    EBANDS =      -921.82814399
  atomic energy  EATOM  =      3827.98814510
  Solvation  Ediel_sol  =         0.00000000
  ---------------------------------------------------
  free energy    TOTEN  =       -69.68447016 eV

  energy without entropy =      -69.68447016  energy(sigma->0) =      -69.68447016


--------------------------------------------------------------------------------------------------------




--------------------------------------- Iteration      1(  16)  ---------------------------------------


    POTLOK:  cpu time    5.1526: real time    5.1754
    SETDIJ:  cpu time    0.1450: real time    0.1450
    EDDIAG:  cpu time    0.4828: real time    0.4833
  RMM-DIIS:  cpu time    2.9541: real time    2.9547
    ORTHCH:  cpu time    0.0703: real time    0.0703
 BZINTS: Fermi energy: -0.969843;138.000000 electrons
         Band energy:-902.518377;  BLOECHL correction: -0.094170
       DOS:  cpu time    0.0030: real time    0.0030
    CHARGE:  cpu time    0.1259: real time    0.1259
    MIXING:  cpu time    0.0050: real time    0.0050
    --------------------------------------------
      LOOP:  cpu time    8.9386: real time    8.9626

 eigenvalue-minimisations  :  1622
 total energy-change (2. order) :-0.5503591E-02  (-0.1412741E+00)
 number of electron     137.9999999 magnetization 
 augmentation part        4.4461995 magnetization 

 DIPCOR: dipole corrections for dipol
 direction  3 min pos   370,
 dipolmoment           0.000000      0.000000      0.148878 electrons x Angstroem
 Tr[quadrupol]     -1933.884842

 energy correction for charged system         0.000000 eV
 dipol+quadrupol energy correction           -0.000777 eV
 added-field ion interaction         -0.184375 eV  (added to PSCEN)


 Broyden mixing:
  rms(total) = 0.25233E+00    rms(broyden)= 0.25231E+00
  rms(prec ) = 0.39822E+00
  weight for this iteration     100.00

 eigenvalues of (default mixing * dielectric matrix)
  average eigenvalue GAMMA=   1.0480
  2.3938  0.1535  0.6137  1.0310

 Free energy of the ion-electron system (eV)
  ---------------------------------------------------
  alpha Z        PSCENC =        62.97591066
  Ewald energy   TEWEN  =     13031.30337775
  -Hartree energ DENC   =    -16465.88812611
  -exchange      EXHF   =         0.00000000
  -V(xc)+E(xc)   XCENC  =     -2037.25141139
  PAW double counting   =      5861.32976002    -3447.62925252
  entropy T*S    EENTRO =         0.00000000
  eigenvalues    EBANDS =      -902.51837727
  atomic energy  EATOM  =      3827.98814510
  Solvation  Ediel_sol  =         0.00000000
  ---------------------------------------------------
  free energy    TOTEN  =       -69.68997375 eV

  energy without entropy =      -69.68997375  energy(sigma->0) =      -69.68997375


--------------------------------------------------------------------------------------------------------




--------------------------------------- Iteration      1(  17)  ---------------------------------------


    POTLOK:  cpu time    4.9347: real time    4.9533
    SETDIJ:  cpu time    0.1342: real time    0.1342
    EDDIAG:  cpu time    0.4764: real time    0.4769
  RMM-DIIS:  cpu time    2.4484: real time    2.4492
    ORTHCH:  cpu time    0.0707: real time    0.0707
 BZINTS: Fermi energy: -0.947102;138.000000 electrons
         Band energy:-898.143507;  BLOECHL correction: -0.076625
       DOS:  cpu time    0.0031: real time    0.0031
    CHARGE:  cpu time    0.1247: real time    0.1247
    MIXING:  cpu time    0.0040: real time    0.0040
    --------------------------------------------
      LOOP:  cpu time    8.1963: real time    8.2160

 eigenvalue-minimisations  :  1334
 total energy-change (2. order) : 0.3418508E+00  (-0.4202360E-01)
 number of electron     137.9999999 magnetization 
 augmentation part        4.4605754 magnetization 

 DIPCOR: dipole corrections for dipol
 direction  3 min pos   380,
 dipolmoment           0.000000      0.000000     -0.182912 electrons x Angstroem
 Tr[quadrupol]     -1932.297943

 energy correction for charged system         0.000000 eV
[...]
  0.013  -0.001  -0.000   0.054   0.001   0.000  -0.003  -0.000  -0.000   0.000   0.011  -0.000   0.000
  0.002   0.000  -0.002   0.001   0.077   0.000  -0.000  -0.004  -0.003  -0.000   0.000   0.004   0.000
  0.000   0.000  -0.004   0.000   0.000   0.000  -0.000  -0.000  -0.000  -0.000   0.000   0.000   0.000
 -0.003   0.000   0.000  -0.003  -0.000  -0.000   0.000   0.000   0.000  -0.000  -0.001   0.000  -0.000
 -0.000  -0.000   0.000  -0.000  -0.004  -0.000   0.000   0.000   0.000   0.000   0.000  -0.000  -0.000
  0.001   0.000   0.000  -0.000  -0.003  -0.000   0.000   0.000   0.003   0.000   0.000  -0.000   0.000
  0.000  -0.000   0.004   0.000  -0.000  -0.000  -0.000   0.000   0.000   0.002   0.000   0.000  -0.000
 -0.022   0.000  -0.000   0.011   0.000   0.000  -0.001   0.000   0.000   0.000   0.004  -0.000  -0.000
  0.000   0.000  -0.000  -0.000   0.004   0.000   0.000  -0.000  -0.000   0.000  -0.000   0.002   0.000
 -0.001  -0.000  -0.003   0.000   0.000   0.000  -0.000  -0.000   0.000  -0.000  -0.000   0.000   0.003


------------------------ aborting loop because EDIFF is reached ----------------------------------------


    CHARGE:  cpu time    0.3551: real time    0.3552
    FORLOC:  cpu time    0.0386: real time    0.0386
    FORNL :  cpu time    0.6968: real time    0.6970
    STRESS:  cpu time    2.0984: real time    2.0989
    FORCOR:  cpu time    4.9427: real time    4.9456
    FORHAR:  cpu time    0.0739: real time    0.0740
    MIXING:  cpu time    0.0066: real time    0.0066
    OFIELD:  cpu time    0.0001: real time    0.0001

  FORCE on cell =-STRESS in cart. coord.  units (eV):
  Direction    XX          YY          ZZ          XY          YZ          ZX
  --------------------------------------------------------------------------------------
  Alpha Z    63.16106    63.16106    63.16106
  Ewald   14616.93961 14376.52463-15962.17075  -168.58748   148.07543    80.45343
  Hartree 15497.45407 15313.42019-14316.12108  -122.95950    38.57561    26.25757
  E(xc)    -445.74239  -445.81271  -444.89614    -0.13926     0.61170     0.25477
  Local  -31079.27320-30649.46030 29311.80028   292.58027  -147.94812   -87.30410
  n-local   119.65113   119.33659   111.61412    -0.28292     0.65551     0.55167
  augment    44.79434    44.38753    45.68638    -0.10241    -2.55048    -1.28739
  Kinetic  1174.32198  1170.44420  1191.45578     0.05014   -37.37999   -18.35532
  Fock        0.00000     0.00000     0.00000     0.00000     0.00000     0.00000
  -------------------------------------------------------------------------------------
  Total      -8.69339    -7.99881     0.52966     0.55885     0.03965     0.57063
  in kB      -5.39868    -4.96734     0.32892     0.34705     0.02463     0.35437
  external pressure =       -3.35 kB  Pullay stress =        0.00 kB


 VOLUME and BASIS-vectors are now :
 -----------------------------------------------------------------------------
  energy-cutoff  :      520.00
  volume of cell :     2579.96
      direct lattice vectors                 reciprocal lattice vectors
     9.555752754  0.000000000  0.000000000     0.104649003  0.060419130  0.000000000
    -4.777876377  8.275524637  0.000000000     0.000000000  0.120838260  0.000000000
     0.000000000  0.000000000 32.625095367     0.000000000  0.000000000  0.030651251

  length of vectors
     9.555752754  9.555752754 32.625095367     0.120838260  0.120838260  0.030651251


 FORCES acting on ions
    electron-ion (+dipol)            ewald-force                    non-local-force                 convergence-correction
 -----------------------------------------------------------------------------------------------
   0.954E-01 -.283E-01 0.122E+03   -.724E-02 -.149E-01 -.121E+03   -.631E-01 0.324E-01 -.789E+00   0.348E-05 -.775E-05 0.969E-04
   0.331E+00 0.956E-01 0.566E+02   -.207E+00 -.147E+00 -.567E+02   -.103E+00 0.457E-01 0.702E-01   0.910E-05 0.817E-05 0.715E-03
   -.292E+01 -.244E+01 0.692E+01   0.302E+01 0.243E+01 -.719E+01   -.862E-01 0.353E-02 0.272E+00   -.147E-05 0.417E-05 -.164E-03
   -.584E-01 -.896E-02 0.122E+03   -.134E-01 -.170E-02 -.121E+03   0.216E-01 -.557E-02 -.856E+00   0.404E-05 -.119E-04 0.107E-03
   0.247E+00 -.640E-02 0.570E+02   -.242E+00 0.170E-01 -.570E+02   -.445E-02 -.111E-01 0.465E-01   0.198E-06 -.124E-04 0.702E-03
   0.884E+00 -.390E+01 -.121E+02   -.886E+00 0.392E+01 0.118E+02   0.412E-02 -.222E-01 0.338E+00   0.108E-04 -.799E-05 -.129E-05
   0.286E-01 0.810E-01 0.122E+03   -.922E-02 -.799E-03 -.121E+03   0.210E-02 -.531E-01 -.915E+00   -.219E-04 0.114E-04 0.949E-04
   0.584E-01 0.282E+00 0.563E+02   -.781E-01 -.181E+00 -.564E+02   0.129E-01 -.855E-01 0.146E+00   -.231E-08 0.949E-05 0.717E-03
   -.587E+01 0.198E+01 -.188E+02   0.591E+01 -.173E+01 0.183E+02   -.296E-01 -.235E+00 0.464E+00   0.253E-05 0.135E-04 -.393E-04
   -.433E-01 -.512E-01 0.122E+03   0.556E-02 -.516E-02 -.121E+03   0.214E-01 0.297E-01 -.863E+00   -.117E-04 0.115E-04 0.959E-04
   -.220E+00 0.681E-01 0.567E+02   0.138E+00 -.967E-01 -.568E+02   0.736E-01 0.248E-01 0.129E+00   -.121E-04 0.620E-05 0.725E-03
   -.240E+01 0.196E+01 -.110E+02   0.231E+01 -.215E+01 0.106E+02   0.831E-01 0.181E+00 0.450E+00   -.579E-06 -.242E-05 -.125E-04
   -.445E-02 0.208E-01 0.122E+03   0.742E-02 0.428E-02 -.122E+03   -.368E-02 -.110E-01 -.876E+00   0.128E-04 0.313E-05 0.105E-03
   0.767E-01 0.389E-01 0.574E+02   -.415E-01 -.859E-01 -.574E+02   -.263E-01 0.247E-01 0.588E-01   -.139E-05 -.133E-04 0.699E-03
   0.374E+01 0.846E+01 -.108E+02   -.393E+01 -.929E+01 0.100E+02   0.197E+00 0.830E+00 0.768E+00   -.475E-05 -.191E-04 -.281E-04
   -.292E-01 -.771E-02 0.122E+03   0.213E-02 0.957E-02 -.121E+03   0.207E-01 -.269E-02 -.762E+00   0.215E-04 -.164E-05 0.998E-04
   0.129E+00 -.852E-01 0.570E+02   -.183E+00 0.128E+00 -.571E+02   0.360E-01 -.267E-01 0.140E-01   -.347E-05 -.237E-05 0.705E-03
   0.230E+02 -.374E+01 -.203E+01   -.234E+02 0.388E+01 0.209E+01   0.360E+00 -.145E+00 -.535E-01   -.195E-04 0.173E-04 -.194E-03
   -.365E-02 0.772E-01 0.122E+03   0.180E-02 -.235E-02 -.121E+03   -.390E-02 -.211E-01 -.908E+00   0.822E-05 -.610E-05 0.103E-03
   -.122E+00 -.642E-01 0.567E+02   0.836E-01 0.547E-01 -.568E+02   0.358E-01 0.105E-01 0.102E+00   0.305E-05 0.148E-04 0.707E-03
   0.420E+01 -.290E+01 -.144E+02   -.411E+01 0.303E+01 0.140E+02   -.874E-01 -.121E+00 0.377E+00   0.181E-05 -.828E-05 -.186E-04
   0.556E-01 -.556E-01 0.122E+03   0.613E-02 0.460E-02 -.121E+03   -.978E-02 0.161E-01 -.811E+00   -.169E-04 0.611E-05 0.963E-04
   -.320E+00 -.732E-01 0.567E+02   0.285E+00 0.798E-01 -.568E+02   0.299E-01 -.401E-02 0.453E-01   0.118E-05 -.931E-05 0.706E-03
   -.115E+02 0.925E+01 0.337E+01   0.116E+02 -.945E+01 -.379E+01   -.150E+00 0.201E+00 0.428E+00   0.202E-05 -.158E-04 -.154E-03
   -.596E-01 -.313E-01 0.122E+03   0.720E-02 0.643E-02 -.121E+03   0.305E-01 0.185E-01 -.759E+00   0.441E-06 -.486E-05 0.101E-03
   -.272E+00 -.273E+00 0.567E+02   0.278E+00 0.237E+00 -.568E+02   0.136E-01 0.349E-01 0.185E-01   0.382E-05 -.876E-06 0.699E-03
   -.879E+01 -.977E+01 0.193E+02   0.900E+01 0.100E+02 -.185E+02   -.210E+00 -.283E+00 -.821E+00   0.109E-04 0.249E-04 -.160E-03
   0.122E+00 0.137E+00 0.900E+02   -.737E-01 -.119E+00 -.899E+02   -.439E-01 -.318E-01 -.378E-01   0.385E-05 0.856E-05 0.420E-03
   0.768E+00 0.887E+00 0.244E+02   -.736E+00 -.756E+00 -.246E+02   -.280E-01 -.140E+00 0.120E+00   0.132E-04 -.168E-05 0.553E-03
   0.134E+00 -.105E+00 0.899E+02   -.669E-01 0.767E-01 -.898E+02   -.539E-01 0.432E-01 -.691E-02   0.537E-05 -.146E-04 0.423E-03
   0.763E+00 -.308E+00 0.229E+02   -.766E+00 0.299E+00 -.229E+02   0.697E-02 0.118E-01 0.495E-01   -.258E-05 0.607E-05 0.547E-03
   0.263E-01 0.500E-01 0.898E+02   -.656E-01 -.535E-01 -.898E+02   0.410E-02 0.797E-02 -.631E-01   -.570E-05 0.789E-05 0.414E-03
   -.182E+00 0.233E+00 0.237E+02   0.204E+00 -.288E+00 -.237E+02   -.423E-01 0.573E-01 0.348E-02   0.112E-04 0.823E-05 0.542E-03
   -.196E+00 0.445E-01 0.899E+02   0.149E+00 -.706E-02 -.899E+02   0.331E-01 -.223E-01 -.198E-01   -.148E-04 0.113E-04 0.415E-03
   -.904E+00 0.135E+01 0.246E+02   0.813E+00 -.128E+01 -.248E+02   0.922E-01 -.548E-01 0.118E+00   -.187E-04 -.162E-04 0.550E-03
   -.411E-01 -.160E+00 0.899E+02   0.646E-01 0.151E+00 -.898E+02   -.246E-01 0.246E-01 -.266E-01   0.118E-04 -.108E-04 0.408E-03
   0.125E+01 -.414E+00 0.270E+02   -.113E+01 0.309E+00 -.277E+02   -.113E+00 0.102E+00 0.698E+00   0.516E-05 -.927E-05 0.566E-03
   -.611E-02 -.413E-01 0.898E+02   0.200E-01 -.244E-02 -.898E+02   -.229E-01 0.106E-01 -.932E-03   0.103E-04 0.354E-05 0.416E-03
   0.857E+00 -.293E+00 0.235E+02   -.807E+00 0.289E+00 -.236E+02   -.459E-01 -.476E-02 0.785E-01   -.116E-04 0.113E-04 0.554E-03
   0.133E+00 0.150E-01 0.898E+02   -.101E+00 -.223E-02 -.897E+02   -.402E-01 -.531E-02 -.412E-01   0.110E-04 -.430E-05 0.422E-03
   0.125E+00 -.364E+00 0.242E+02   -.381E-01 0.306E+00 -.242E+02   -.869E-01 0.593E-01 -.168E-01   0.516E-05 -.114E-04 0.542E-03
   0.581E-02 0.187E-01 0.898E+02   -.170E-01 0.116E-01 -.897E+02   -.191E-01 -.210E-01 0.550E-01   -.172E-04 0.274E-05 0.410E-03
   -.230E+01 0.264E+00 0.236E+02   0.220E+01 -.203E+00 -.237E+02   0.897E-01 -.658E-01 0.416E-01   -.469E-05 0.148E-04 0.531E-03
   -.266E-01 0.399E-01 0.898E+02   0.239E-01 -.568E-01 -.897E+02   0.137E-01 -.489E-02 0.389E-01   -.442E-05 -.445E-05 0.409E-03
   -.715E+00 -.146E+01 0.240E+02   0.607E+00 0.140E+01 -.241E+02   0.111E+00 0.695E-01 0.111E+00   0.101E-05 -.175E-05 0.541E-03
   0.141E+02 0.435E+02 -.252E+03   -.243E+02 -.689E+02 0.230E+03   0.102E+02 0.254E+02 0.211E+02   0.129E-04 0.320E-04 -.120E-02
   -.232E+02 0.340E+02 -.429E+03   0.277E+01 -.482E+02 0.466E+03   0.204E+02 0.142E+02 -.362E+02   -.167E-04 -.183E-04 -.795E-03
   0.341E+02 -.798E+01 -.423E+03   -.398E+02 -.191E+02 0.457E+03   0.564E+01 0.271E+02 -.341E+02   -.182E-05 -.176E-03 -.968E-03
   -.163E+02 0.737E+02 -.263E+03   -.383E+00 -.974E+02 0.243E+03   0.167E+02 0.236E+02 0.197E+02   0.249E-04 -.875E-04 -.149E-02
   -.918E+01 -.635E+01 -.254E+03   -.562E+01 -.159E+02 0.243E+03   0.148E+02 0.222E+02 0.114E+02   0.139E-03 0.167E-03 -.148E-02
   0.970E+02 0.272E+02 -.284E+03   -.111E+03 -.528E+02 0.266E+03   0.138E+02 0.255E+02 0.182E+02   -.789E-04 0.103E-03 -.147E-02
   0.362E+02 -.409E+02 -.863E+02   -.409E+02 0.461E+02 0.894E+02   0.470E+01 -.515E+01 -.313E+01   -.372E-05 0.592E-05 -.141E-03
   -.525E+02 -.229E+01 -.868E+02   0.594E+02 0.256E+01 0.900E+02   -.684E+01 -.263E+00 -.320E+01   0.117E-04 0.633E-05 -.134E-03
   -.372E+02 -.674E+02 -.495E+02   0.407E+02 0.746E+02 0.482E+02   -.356E+01 -.726E+01 0.124E+01   0.105E-04 0.185E-04 -.142E-03
   -.212E+02 0.486E+02 0.166E+02   0.227E+02 -.529E+02 -.228E+02   -.154E+01 0.434E+01 0.622E+01   0.170E-05 -.134E-04 -.234E-03
   -.364E+02 -.781E+02 -.584E+02   0.403E+02 0.853E+02 0.580E+02   -.386E+01 -.720E+01 0.323E+00   0.174E-04 0.593E-05 -.153E-03
   0.359E+02 0.732E+01 0.261E+02   -.391E+02 -.837E+01 -.329E+02   0.317E+01 0.105E+01 0.677E+01   -.257E-05 -.209E-04 -.244E-03
   0.170E+02 -.341E+02 -.598E+02   -.199E+02 0.393E+02 0.602E+02   0.288E+01 -.512E+01 -.391E+00   0.167E-04 -.151E-04 -.211E-03
   -.622E+02 0.184E+01 -.114E+03   0.684E+02 -.206E+01 0.119E+03   -.617E+01 0.222E+00 -.541E+01   0.248E-04 -.137E-04 -.139E-03
   -.401E+02 -.561E+02 -.970E+02   0.440E+02 0.620E+02 0.101E+03   -.390E+01 -.584E+01 -.403E+01   0.422E-04 0.679E-04 -.157E-03
   0.449E+01 0.387E+01 0.199E+01   -.449E+01 -.384E+01 -.211E+01   0.465E-03 -.329E-01 0.124E+00   -.370E-06 -.953E-05 -.668E-04
   0.322E+02 -.553E+02 -.115E+03   -.350E+02 0.609E+02 0.121E+03   0.277E+01 -.561E+01 -.545E+01   -.178E-04 0.464E-04 -.138E-03
   -.362E+02 0.157E+01 -.609E+02   0.421E+02 -.199E+01 0.612E+02   -.588E+01 0.409E+00 -.252E+00   -.180E-04 0.210E-04 -.205E-03
 -----------------------------------------------------------------------------------------------
   -.633E+02 -.108E+03 0.106E+02   -.355E-13 0.224E-13 -.109E-11   0.633E+02 0.108E+03 -.106E+02   0.163E-03 0.127E-03 0.580E-02
 
 
 POSITION                                       TOTAL-FORCE (eV/Angst)
 -----------------------------------------------------------------------------------
      0.00000      0.00000      0.00000         0.025226     -0.010750     -0.000801
      4.75745      8.26838      5.17270         0.021364     -0.005357      0.004617
      9.51497      0.03324     10.75279         0.018304     -0.005083      0.000332
     -1.59263      2.75851      0.00000        -0.050022     -0.016146     -0.043510
      7.94554      2.76828      5.13273         0.000286     -0.000416     -0.000761
      7.85374      2.75571     10.16187         0.001809      0.001881      0.015066
     -3.18525      5.51702      0.00000         0.021619      0.027210     -0.015150
      6.34229      5.51980      5.15914        -0.006623      0.015130     -0.007090
     -3.19641      5.56420     10.27717         0.012621      0.016635      0.011720
      3.18525      0.00000      0.00000        -0.016191     -0.026532     -0.022941
     -1.61460      8.27132      5.14470        -0.008079     -0.003694     -0.004834
     -1.64652      8.24886     10.16629        -0.010896     -0.015595      0.015720
      1.59263      2.75851      0.00000        -0.000536      0.014143     -0.037584
      1.57777      2.74982      5.12412         0.009010     -0.022187     -0.009972
      1.49021      2.65287     10.15267        -0.000240     -0.002398      0.008622
     -0.00000      5.51702      0.00000        -0.006230     -0.000749     -0.027954
     -0.02324      5.51798      5.16366        -0.017554      0.015830     -0.002703
     -0.17067      5.52594     10.79174        -0.012067     -0.000360      0.013994
      6.37050      0.00000      0.00000        -0.005579      0.053860     -0.042798
      1.58129      8.26357      5.14666        -0.002659      0.001020     -0.003791
      6.30346      0.07183     10.23645         0.003437      0.004931      0.018721
      4.77788      2.75851      0.00000         0.052131     -0.034834     -0.026650
      4.75057      2.77474      5.17678        -0.005145      0.002657      0.001339
      4.75160      2.67486     10.67157         0.005210     -0.001870      0.010701
      3.18525      5.51702      0.00000        -0.021759     -0.006235     -0.054540
      3.18234      5.51909      5.18481         0.019401     -0.000270     -0.006092
      3.14962      5.57527     10.53397         0.003276     -0.000327      0.005478
      0.00000      1.83901      2.60418         0.004360     -0.014067      0.023529
     -0.05343      1.82732      7.67844         0.003931     -0.009120     -0.001589
     -1.59263      4.59751      2.60418         0.012912      0.014853      0.035744
     -1.60371      4.62366      7.72054         0.004275      0.002346      0.002225
     -3.18525      7.35602      2.60418        -0.035000      0.004617     -0.028335
     -3.24051      7.36210      7.70063        -0.020109      0.002234      0.011926
      3.18525      1.83901      2.60418        -0.013429      0.015190      0.043704
      3.16854      1.85583      7.70730         0.001327      0.018116     -0.005134
      1.59263      4.59751      2.60418        -0.000913      0.016031      0.013530
      1.56776      4.60138      7.68201         0.012715     -0.002627     -0.002963
      0.00000      7.35602      2.60418        -0.008792     -0.033061      0.043871
     -0.01459      7.32070      7.71830         0.004165     -0.008909     -0.004207
      6.37050      1.83901      2.60418        -0.007668      0.007521     -0.011306
      6.31617      1.83667      7.65720        -0.000258      0.001283     -0.003879
      4.77788      4.59751      2.60418        -0.030156      0.009317      0.074346
      4.71899      4.56392      7.86541        -0.006875     -0.004608     -0.014660
      3.18525      7.35602      2.60418         0.011122     -0.021693      0.057031
      3.17389      7.34059      7.83385         0.003544      0.002612     -0.009993
      4.66341      8.26007     12.85977        -0.004253     -0.001069      0.000898
     -2.22932      8.22308     13.61173        -0.005237      0.016794      0.014699
      7.56751      1.94373     13.56369         0.001136     -0.001234      0.016784
      4.25046      3.01232     12.70256        -0.002412     -0.006545      0.007307
      3.03010      5.29002     12.53409        -0.003757     -0.004858     -0.007580
      0.45977      5.43187     12.76435         0.010639     -0.012273     -0.002161
      8.84687      0.66744     13.27399        -0.002877     -0.002488     -0.006602
      0.78478      0.03991     13.28962        -0.000041      0.001459     -0.011118
      2.98047      0.81109     13.43970        -0.010392      0.016455     -0.004528
     -2.02065      7.69362     12.80220         0.003116     -0.001153      0.002679
     -1.53134      2.80790     13.50104         0.004117     -0.004159     -0.003750
      7.16524      1.83135     12.66060         0.000353     -0.002684     -0.004510
      3.76580      3.93192     12.77603         0.001493      0.001484     -0.005185
      4.98446      3.00611     13.34823         0.004331      0.002404      0.003285
      3.50252      5.99457     13.02005         0.006534      0.008795     -0.012078
      1.47416      4.57283     10.34779        -0.001165     -0.002054     -0.001401
      0.15030      6.09848     13.40457         0.014868     -0.002206      0.000474
      1.49909      5.38927     12.81269         0.018284     -0.007203     -0.010190
 -----------------------------------------------------------------------------------
    total drift:                               -0.009999     -0.005383      0.019206


--------------------------------------------------------------------------------------------------------



  FREE ENERGIE OF THE ION-ELECTRON SYSTEM (eV)
  ---------------------------------------------------
  free  energy   TOTEN  =       -69.31776958 eV

  energy  without entropy=      -69.31776958  energy(sigma->0) =      -69.31776958
 


--------------------------------------------------------------------------------------------------------


    POTLOK:  cpu time    5.1472: real time    5.1602


--------------------------------------------------------------------------------------------------------


 stress matrix after NEB project (eV)
     -8.69339      0.55885      0.57063
      0.55885     -7.99881      0.03965
      0.57063      0.03965      0.52966
  FORCES: max atom, RMS     0.025940    0.012720
  FORCE total and by dimension    0.100959    0.022187
  Stress total and by dimension   11.879205    8.693392
     LOOP+:  cpu time  200.8470: real time  202.1966
 vacuum level on the upper side and lower side of the slab         2.522         3.067
    4ORBIT:  cpu time    0.0000: real time    0.0000
 BZINTS: Fermi energy: -0.787630;138.000000 electrons
         Band energy:-876.846960;  BLOECHL correction: -0.078963

 total amount of memory used by VASP MPI-rank0    62220. kBytes
=======================================================================

   base      :      30000. kBytes
   nonlr-proj:       6317. kBytes
   fftplans  :       6459. kBytes
   grid      :      11407. kBytes
   one-center:         24. kBytes
   wavefun   :       8013. kBytes
 
  
  
 General timing and accounting informations for this job:
 ========================================================
  
                  Total CPU time used (sec):      246.474
                            User time (sec):      238.399
                          System time (sec):        8.075
                         Elapsed time (sec):      257.662
  
                   Maximum memory used (kb):      265620.
                   Average memory used (kb):           0.
  
                          Minor page faults:       195835
                          Major page faults:            0
                 Voluntary context switches:        75401
