<?xml version="1.0" encoding="ISO-8859-1"?>
<modeling>
 <generator>
  <i name="program" type="string">vasp </i>
  <i name="version" type="string">5.4.4.18Apr17-6-g9f103f2a35  </i>
  <i name="subversion" type="string">(build Jun 08 2018 12:06:12) complex            parallel </i>
  <i name="platform" type="string">LinuxIFC </i>
  <i name="date" type="string">2019 06 06 </i>
  <i name="time" type="string">07:18:48 </i>
 </generator>
 <incar>
  <i type="string" name="SYSTEM"> Mg_slab_in_a_box</i>
  <i type="string" name="PREC">accurate</i>
  <i type="string" name="ALGO"> V</i>
  <i type="int" name="NELM">   300</i>
  <i type="int" name="NELMIN">     6</i>
  <i name="EDIFF">      0.00000500</i>
  <i name="ENCUT">    520.00000000</i>
  <i type="string" name="LREAL"> AUTO</i>
  <i type="logical" name="LPLANE"> T  </i>
  <i type="int" name="ISMEAR">    -5</i>
  <i type="logical" name="LWAVE"> F  </i>
  <i type="logical" name="LCHARG"> T  </i>
  <i type="logical" name="LVTOT"> T  </i>
  <i type="logical" name="LVHAR"> T  </i>
  <i type="logical" name="LSCALU"> F  </i>
  <i type="logical" name="LASPH"> T  </i>
  <i type="logical" name="LAECHG"> T  </i>
  <v type="int" name="KPOINT_BSE">    -1     0     0     0</v>
  <i type="int" name="NELM">   300</i>
  <i type="string" name="GGA"> BO</i>
  <i name="PARAM1">      0.18333333</i>
  <i name="PARAM2">      0.22000000</i>
  <i type="logical" name="LUSE_VDW"> T  </i>
  <i name="AGGAC">      0.00000000</i>
  <i type="logical" name="LDIPOL"> T  </i>
  <i type="int" name="IDIPOL">     3</i>
  <i type="logical" name="LASPH"> T  </i>
 </incar>
 <structure name="primitive_cell" >
  <crystal>
   <varray name="basis" >
    <v>       9.55575275       0.00000000       0.00000000 </v>
    <v>      -4.77787638       8.27552464       0.00000000 </v>
    <v>       0.00000000       0.00000000      32.62509537 </v>
   </varray>
   <i name="volume">   2579.95558872 </i>
   <varray name="rec_basis" >
    <v>       0.10464900       0.06041913       0.00000000 </v>
    <v>       0.00000000       0.12083826       0.00000000 </v>
    <v>       0.00000000       0.00000000       0.03065125 </v>
   </varray>
  </crystal>
  <varray name="positions" >
   <v>       0.00000000       0.00000000       0.00000000 </v>
   <v>       0.00000002      -0.33333328       0.00000000 </v>
   <v>      -0.33333330      -0.33333328       0.00000000 </v>
   <v>      -0.33333332       0.00000000       0.00000000 </v>
   <v>       0.33333334       0.00000000       0.00000000 </v>
   <v>       0.00000001       0.33333336       0.00000000 </v>
   <v>       0.33333335       0.33333336       0.00000000 </v>
   <v>      -0.22222216      -0.11111106       0.07982145 </v>
   <v>       0.11111116      -0.11111106       0.07982145 </v>
   <v>       0.11111113       0.22222222       0.07982145 </v>
   <v>      -0.22222219      -0.44444439       0.07982145 </v>
   <v>      -0.22222221       0.22222222       0.07982145 </v>
   <v>       0.44444450       0.22222222       0.07982145 </v>
   <v>      -0.00256909      -0.00086281       0.15854981 </v>
   <v>       0.33333336      -0.33333328       0.00000000 </v>
   <v>      -0.33333332       0.33333336       0.00000000 </v>
   <v>       0.44444450      -0.44444439       0.07982145 </v>
   <v>       0.44444451      -0.11111106       0.07982145 </v>
   <v>       0.11111114      -0.44444439       0.07982145 </v>
   <v>       0.33125344       0.33228313       0.15706061 </v>
   <v>       0.33077984      -0.00050798       0.15769135 </v>
   <v>      -0.00125042       0.33451420       0.15732467 </v>
   <v>      -0.00278447      -0.33299710       0.15813416 </v>
   <v>      -0.33524247      -0.00144488       0.15775143 </v>
   <v>      -0.33351311      -0.33308300       0.15892082 </v>
   <v>       0.33095960      -0.33321744       0.15827268 </v>
   <v>      -0.33521040       0.33529507       0.15867491 </v>
   <v>       0.10481404       0.22081009       0.23535376 </v>
   <v>       0.10569560      -0.11037643       0.23603401 </v>
   <v>      -0.22434322      -0.11297554       0.24011716 </v>
   <v>      -0.22804936       0.22193945       0.23470263 </v>
   <v>       0.44371269       0.22425585       0.23623825 </v>
   <v>      -0.23041444      -0.44850356       0.24108476 </v>
   <v>       0.44207581      -0.44397708       0.23546317 </v>
   <v>       0.11153087      -0.44128512       0.23664425 </v>
   <v>       0.44078340      -0.11537921       0.23657554 </v>
   <v>       0.31623285       0.32056765       0.31119214 </v>
   <v>       0.32608188      -0.00322222       0.31160937 </v>
   <v>      -0.01161608       0.33299554       0.31147397 </v>
   <v>      -0.33600922       0.00868025       0.31375995 </v>
   <v>       0.00168269      -0.32763181       0.31500802 </v>
   <v>      -0.00225955       0.00401705       0.32958637 </v>
   <v>      -0.33354219      -0.32629349       0.32287925 </v>
   <v>       0.43055640      -0.44742682       0.31717282 </v>
   <v>      -0.34113731       0.32322598       0.32709706 </v>
   <v>       0.31601228      -0.33225480       0.33078020 </v>
   <v>      -0.01291256      -0.00186766       0.39416794 </v>
   <v>      -0.36328466      -0.36076277       0.38418541 </v>
   <v>      -0.13951590       0.22129739       0.38806320 </v>
   <v>       0.25338304      -0.07031666       0.39240335 </v>
   <v>      -0.27127813      -0.27562718       0.39908084 </v>
   <v>      -0.03385815       0.08065245       0.40686430 </v>
   <v>       0.08453738       0.00482257       0.40734355 </v>
   <v>      -0.36834952       0.47512681       0.39160120 </v>
   <v>       0.48249352      -0.34877048       0.39272485 </v>
   <v>      -0.37319153       0.36400313       0.38934946 </v>
   <v>       0.37630392      -0.34362186       0.39124315 </v>
   <v>       0.36090918       0.09801129       0.41194365 </v>
   <v>      -0.09062894       0.23487682       0.41574400 </v>
   <v>       0.26353542      -0.00633754       0.41721661 </v>
   <v>       0.00939767       0.33930136       0.41382363 </v>
   <v>       0.38419387      -0.26307063       0.41086690 </v>
   <v>      -0.29675504       0.36325279       0.40914003 </v>
  </varray>
 </structure>
 <varray name="primitive_index" >
  <v type="int" >        1 </v>
  <v type="int" >        7 </v>
  <v type="int" >       25 </v>
  <v type="int" >       19 </v>
  <v type="int" >       10 </v>
  <v type="int" >        4 </v>
  <v type="int" >       13 </v>
  <v type="int" >       44 </v>
  <v type="int" >       32 </v>
  <v type="int" >       28 </v>
  <v type="int" >       42 </v>
  <v type="int" >       40 </v>
  <v type="int" >       34 </v>
  <v type="int" >        2 </v>
  <v type="int" >       16 </v>
  <v type="int" >       22 </v>
  <v type="int" >       36 </v>
  <v type="int" >       38 </v>
  <v type="int" >       30 </v>
  <v type="int" >       14 </v>
  <v type="int" >       11 </v>
  <v type="int" >        5 </v>
  <v type="int" >        8 </v>
  <v type="int" >       20 </v>
  <v type="int" >       26 </v>
  <v type="int" >       17 </v>
  <v type="int" >       23 </v>
  <v type="int" >       29 </v>
  <v type="int" >       33 </v>
  <v type="int" >       45 </v>
  <v type="int" >       41 </v>
  <v type="int" >       35 </v>
  <v type="int" >       43 </v>
  <v type="int" >       37 </v>
  <v type="int" >       31 </v>
  <v type="int" >       39 </v>
  <v type="int" >       15 </v>
  <v type="int" >       12 </v>
  <v type="int" >        6 </v>
  <v type="int" >       21 </v>
  <v type="int" >        9 </v>
  <v type="int" >        3 </v>
  <v type="int" >       27 </v>
  <v type="int" >       61 </v>
  <v type="int" >       24 </v>
  <v type="int" >       18 </v>
  <v type="int" >       46 </v>
  <v type="int" >       50 </v>
  <v type="int" >       57 </v>
  <v type="int" >       55 </v>
  <v type="int" >       60 </v>
  <v type="int" >       52 </v>
  <v type="int" >       53 </v>
  <v type="int" >       58 </v>
  <v type="int" >       63 </v>
  <v type="int" >       49 </v>
  <v type="int" >       51 </v>
  <v type="int" >       54 </v>
  <v type="int" >       48 </v>
  <v type="int" >       47 </v>
  <v type="int" >       56 </v>
  <v type="int" >       62 </v>
  <v type="int" >       59 </v>
 </varray>
 <kpoints>
  <generation param="Gamma">
   <v type="int" name="divisions">       3        3        1 </v>
   <v name="usershift">      0.00000000       0.00000000       0.00000000 </v>
   <v name="genvec1">      0.33333333       0.00000000       0.00000000 </v>
   <v name="genvec2">      0.00000000       0.33333333       0.00000000 </v>
   <v name="genvec3">      0.00000000       0.00000000       1.00000000 </v>
   <v name="shift">      0.00000000       0.00000000       0.00000000 </v>
  </generation>
  <varray name="kpointlist" >
   <v>       0.00000000       0.00000000       0.00000000 </v>
   <v>       0.33333333      -0.00000000       0.00000000 </v>
   <v>       0.00000000       0.33333333       0.00000000 </v>
   <v>       0.33333333       0.33333333       0.00000000 </v>
   <v>      -0.33333333       0.33333333       0.00000000 </v>
  </varray>
  <varray name="weights" >
   <v>       0.11111111 </v>
   <v>       0.22222222 </v>
   <v>       0.22222222 </v>
   <v>       0.22222222 </v>
   <v>       0.22222222 </v>
  </varray>
  <varray name="tetrahedronlist"  type="int" >
   <v type="int" >        2        2        3        3        4 </v>
   <v type="int" >        2        1        2        3        3 </v>
   <v type="int" >        2        1        1        2        3 </v>
   <v type="int" >        2        2        3        4        4 </v>
   <v type="int" >        2        2        2        3        4 </v>
   <v type="int" >        2        1        2        2        3 </v>
   <v type="int" >        2        2        4        4        5 </v>
   <v type="int" >        2        2        2        4        4 </v>
   <v type="int" >        4        2        2        2        4 </v>
   <v type="int" >        2        2        4        5        5 </v>
   <v type="int" >        2        2        2        4        5 </v>
   <v type="int" >        2        1        3        5        5 </v>
   <v type="int" >        2        1        2        5        5 </v>
   <v type="int" >        2        1        2        2        5 </v>
   <v type="int" >        2        1        3        3        5 </v>
   <v type="int" >        2        1        1        3        5 </v>
   <v type="int" >        2        1        1        2        5 </v>
   <v type="int" >        2        3        3        4        5 </v>
   <v type="int" >        4        3        3        3        4 </v>
   <v type="int" >        2        3        4        5        5 </v>
   <v type="int" >        2        3        4        4        5 </v>
   <v type="int" >        2        3        3        4        4 </v>
   <v type="int" >        4        4        5        5        5 </v>
   <v type="int" >        2        4        4        5        5 </v>
  </varray>
  <i name="volumeweight">      0.01851852 </i>
 </kpoints>
 <parameters>
  <separator name="general" >
   <i type="string" name="SYSTEM">Mg_slab_in_a_box</i>
   <i type="logical" name="LCOMPAT"> F  </i>
  </separator>
  <separator name="electronic" >
   <i type="string" name="PREC">accura</i>
   <i name="ENMAX">    520.00000000</i>
   <i name="ENAUG">    605.39200000</i>
   <i name="EDIFF">      0.00000500</i>
   <i type="int" name="IALGO">    48</i>
   <i type="int" name="IWAVPR">    10</i>
   <i type="int" name="NBANDS">   102</i>
   <i name="NELECT">    138.00000000</i>
   <i type="int" name="TURBO">     0</i>
   <i type="int" name="IRESTART">     0</i>
   <i type="int" name="NREBOOT">     0</i>
   <i type="int" name="NMIN">     0</i>
   <i name="EREF">      0.00000000</i>
   <separator name="electronic smearing" >
    <i type="int" name="ISMEAR">    -5</i>
    <i name="SIGMA">      0.20000000</i>
    <i name="KSPACING">      0.50000000</i>
    <i type="logical" name="KGAMMA"> T  </i>
   </separator>
   <separator name="electronic projectors" >
    <i type="logical" name="LREAL"> T  </i>
    <v name="ROPT">     -0.00025000     -0.00025000     -0.00025000</v>
    <i type="int" name="LMAXPAW">  -100</i>
    <i type="int" name="LMAXMIX">     2</i>
    <i type="logical" name="NLSPLINE"> F  </i>
   </separator>
   <separator name="electronic startup" >
    <i type="int" name="ISTART">     0</i>
    <i type="int" name="ICHARG">     2</i>
    <i type="int" name="INIWAV">     1</i>
   </separator>
   <separator name="electronic spin" >
    <i type="int" name="ISPIN">     1</i>
    <i type="logical" name="LNONCOLLINEAR"> F  </i>
    <v name="MAGMOM">      1.00000000      1.00000000      1.00000000      1.00000000      1.00000000      1.00000000      1.00000000      1.00000000      1.00000000      1.00000000      1.00000000      1.00000000      1.00000000      1.00000000      1.00000000      1.00000000      1.00000000      1.00000000      1.00000000      1.00000000
      1.00000000      1.00000000      1.00000000      1.00000000      1.00000000      1.00000000      1.00000000      1.00000000      1.00000000      1.00000000      1.00000000      1.00000000      1.00000000      1.00000000      1.00000000      1.00000000      1.00000000      1.00000000      1.00000000      1.00000000
      1.00000000      1.00000000      1.00000000      1.00000000      1.00000000      1.00000000      1.00000000      1.00000000      1.00000000      1.00000000      1.00000000      1.00000000      1.00000000      1.00000000      1.00000000      1.00000000      1.00000000      1.00000000      1.00000000      1.00000000
      1.00000000      1.00000000      1.00000000</v>
    <i name="NUPDOWN">     -1.00000000</i>
    <i type="logical" name="LSORBIT"> F  </i>
    <v name="SAXIS">      0.00000000      0.00000000      1.00000000</v>
    <i type="logical" name="LSPIRAL"> F  </i>
    <v name="QSPIRAL">      0.00000000      0.00000000      0.00000000</v>
    <i type="logical" name="LZEROZ"> F  </i>
   </separator>
   <separator name="electronic exchange-correlation" >
    <i type="logical" name="LASPH"> T  </i>
    <i type="logical" name="LMETAGGA"> F  </i>
   </separator>
   <separator name="electronic convergence" >
    <i type="int" name="NELM">   300</i>
    <i type="int" name="NELMDL">   -12</i>
    <i type="int" name="NELMIN">     6</i>
    <i name="ENINI">    520.00000000</i>
    <separator name="electronic convergence detail" >
     <i type="logical" name="LDIAG"> T  </i>
     <i type="logical" name="LSUBROT"> F  </i>
     <i name="WEIMIN">      0.00000000</i>
     <i name="EBREAK">      0.00000001</i>
     <i name="DEPER">      0.30000000</i>
     <i type="int" name="NRMM">     4</i>
     <i name="TIME">      0.40000000</i>
    </separator>
   </separator>
   <separator name="electronic mixer" >
    <i name="AMIX">      0.40000000</i>
    <i name="BMIX">      1.00000000</i>
    <i name="AMIN">      0.10000000</i>
    <i name="AMIX_MAG">      1.60000000</i>
    <i name="BMIX_MAG">      1.00000000</i>
    <separator name="electronic mixer details" >
     <i type="int" name="IMIX">     4</i>
     <i type="logical" name="MIXFIRST"> F  </i>
     <i type="int" name="MAXMIX">   -45</i>
     <i name="WC">    100.00000000</i>
     <i type="int" name="INIMIX">     1</i>
     <i type="int" name="MIXPRE">     1</i>
     <i type="int" name="MREMOVE">     5</i>
    </separator>
   </separator>
   <separator name="electronic dipolcorrection" >
    <i type="logical" name="LDIPOL"> T  </i>
    <i type="logical" name="LMONO"> F  </i>
    <i type="int" name="IDIPOL">     3</i>
    <i name="EPSILON">      1.00000000</i>
    <v name="DIPOL">   -100.00000000   -100.00000000   -100.00000000</v>
    <i name="EFIELD">      0.00000000</i>
   </separator>
  </separator>
  <separator name="grids" >
   <i type="int" name="NGX">    72</i>
   <i type="int" name="NGY">    72</i>
   <i type="int" name="NGZ">   250</i>
   <i type="int" name="NGXF">   144</i>
   <i type="int" name="NGYF">   144</i>
   <i type="int" name="NGZF">   500</i>
   <i type="logical" name="ADDGRID"> F  </i>
  </separator>
  <separator name="ionic" >
   <i type="int" name="NSW">     0</i>
   <i type="int" name="IBRION">    -1</i>
   <i type="int" name="MDALGO">     0</i>
   <i type="int" name="ISIF">     2</i>
   <i name="PSTRESS">      0.00000000</i>
   <i name="EDIFFG">      0.00005000</i>
   <i type="int" name="NFREE">     0</i>
   <i name="POTIM">      0.50000000</i>
   <i name="SMASS">     -3.00000000</i>
   <i name="SCALEE">      1.00000000</i>
  </separator>
  <separator name="ionic md" >
   <i name="TEBEG">      0.00010000</i>
   <i name="TEEND">      0.00010000</i>
   <i type="int" name="NBLOCK">     1</i>
   <i type="int" name="KBLOCK">     1</i>
   <i type="int" name="NPACO">   256</i>
   <i name="APACO">     16.00000000</i>
  </separator>
  <separator name="symmetry" >
   <i type="int" name="ISYM">     2</i>
   <i name="SYMPREC">      0.00001000</i>
  </separator>
  <separator name="dos" >
   <i type="int" name="LORBIT">     0</i>
   <v name="RWIGS">     -1.00000000     -1.00000000     -1.00000000</v>
   <i type="int" name="NEDOS">   301</i>
   <i name="EMIN">     10.00000000</i>
   <i name="EMAX">    -10.00000000</i>
   <i name="EFERMI">      0.00000000</i>
  </separator>
  <separator name="writing" >
   <i type="int" name="NWRITE">     2</i>
   <i type="logical" name="LWAVE"> F  </i>
   <i type="logical" name="LDOWNSAMPLE"> F  </i>
   <i type="logical" name="LCHARG"> T  </i>
   <i type="logical" name="LPARD"> F  </i>
   <i type="logical" name="LVTOT"> F  </i>
   <i type="logical" name="LVHAR"> T  </i>
   <i type="logical" name="LELF"> F  </i>
   <i type="logical" name="LOPTICS"> F  </i>
   <v name="STM">      0.00000000      0.00000000      0.00000000      0.00000000      0.00000000      0.00000000      0.00000000</v>
  </separator>
  <separator name="performance" >
   <i type="int" name="NPAR">     3</i>
   <i type="int" name="NSIM">     4</i>
   <i type="int" name="NBLK">    -1</i>
   <i type="logical" name="LPLANE"> T  </i>
   <i type="logical" name="LSCALAPACK"> T  </i>
   <i type="logical" name="LSCAAWARE"> F  </i>
   <i type="logical" name="LSCALU"> F  </i>
   <i type="logical" name="LASYNC"> F  </i>
   <i type="logical" name="LORBITALREAL"> F  </i>
  </separator>
  <separator name="miscellaneous" >
   <i type="int" name="IDIOT">     3</i>
   <i type="int" name="ISPECIAL">     0</i>
   <i type="logical" name="LMUSIC"> F  </i>
   <v name="POMASS">     24.30500000     16.00000000      1.00000000</v>
   <v name="DARWINR">      0.00000000      0.00000000      0.00000000</v>
   <v name="DARWINV">      1.00000000      1.00000000      1.00000000</v>
   <i type="logical" name="LCORR"> T  </i>
  </separator>
  <i type="logical" name="GGA_COMPAT"> T  </i>
  <i type="logical" name="LBERRY"> F  </i>
  <i type="int" name="ICORELEVEL">     0</i>
  <i type="logical" name="LDAU"> F  </i>
  <i type="int" name="I_CONSTRAINED_M">     0</i>
  <separator name="electronic exchange-correlation" >
   <i type="string" name="GGA">BO</i>
   <i type="int" name="VOSKOWN">     0</i>
   <i type="logical" name="LHFCALC"> F  </i>
   <i type="string" name="PRECFOCK"></i>
   <i type="logical" name="LSYMGRAD"> F  </i>
   <i type="logical" name="LHFONE"> F  </i>
   <i type="logical" name="LRHFCALC"> F  </i>
   <i type="logical" name="LTHOMAS"> F  </i>
   <i type="logical" name="LMODELHF"> F  </i>
   <i name="ENCUT4O">     -1.00000000</i>
   <i type="int" name="EXXOEP">     0</i>
   <i type="int" name="FOURORBIT">     0</i>
   <i name="AEXX">      0.00000000</i>
   <i name="HFALPHA">      0.00000000</i>
   <i name="MCALPHA">      0.00000000</i>
   <i name="ALDAX">      1.00000000</i>
   <i name="AGGAX">      1.00000000</i>
   <i name="ALDAC">      1.00000000</i>
   <i name="AGGAC">      0.00000000</i>
   <i type="int" name="NKREDX">     1</i>
   <i type="int" name="NKREDY">     1</i>
   <i type="int" name="NKREDZ">     1</i>
   <i type="logical" name="SHIFTRED"> F  </i>
   <i type="logical" name="ODDONLY"> F  </i>
   <i type="logical" name="EVENONLY"> F  </i>
   <i type="int" name="LMAXFOCK">     0</i>
   <i type="int" name="NMAXFOCKAE">     0</i>
   <i type="logical" name="LFOCKAEDFT"> F  </i>
   <i name="HFSCREEN">      0.00000000</i>
   <i name="HFSCREENC">      0.00000000</i>
   <i type="int" name="NBANDSGWLOW">     0</i>
  </separator>
  <separator name="vdW DFT" >
   <i type="logical" name="LUSE_VDW"> T  </i>
   <i name="Zab_VDW">     -0.84910000</i>
   <i name="PARAM1">      0.18333333</i>
   <i name="PARAM2">      0.22000000</i>
   <i name="PARAM3">      0.00000000</i>
  </separator>
  <separator name="model GW" >
   <i type="int" name="MODEL_GW">     0</i>
   <i name="MODEL_EPS0">     24.57100561</i>
   <i name="MODEL_ALPHA">      1.00000000</i>
  </separator>
  <separator name="linear response parameters" >
   <i type="logical" name="LEPSILON"> F  </i>
   <i type="logical" name="LRPA"> F  </i>
   <i type="logical" name="LNABLA"> F  </i>
   <i type="logical" name="LVEL"> F  </i>
   <i type="int" name="KINTER">     0</i>
   <i name="CSHIFT">      0.10000000</i>
   <i name="OMEGAMAX">     -1.00000000</i>
   <i name="DEG_THRESHOLD">      0.00200000</i>
   <i name="RTIME">     -0.10000000</i>
   <i name="WPLASMAI">      0.00000000</i>
   <v name="DFIELD">      0.00000000      0.00000000      0.00000000</v>
   <v name="WPLASMA">      0.00000000      0.00000000      0.00000000      0.00000000      0.00000000      0.00000000      0.00000000      0.00000000      0.00000000</v>
  </separator>
  <separator name="orbital magnetization" >
   <i type="logical" name="NUCIND"> F  </i>
   <v name="MAGPOS">      0.00000000      0.00000000      0.00000000</v>
   <i type="logical" name="LNICSALL"> T  </i>
   <i type="logical" name="ORBITALMAG"> F  </i>
   <i type="logical" name="LMAGBLOCH"> F  </i>
   <i type="logical" name="LCHIMAG"> F  </i>
   <i type="logical" name="LGAUGE"> T  </i>
   <i type="int" name="MAGATOM">     0</i>
   <v name="MAGDIPOL">      0.00000000      0.00000000      0.00000000</v>
   <v name="AVECCONST">      0.00000000      0.00000000      0.00000000</v>
  </separator>
  <separator name="response functions" >
   <i type="logical" name="LADDER"> F  </i>
   <i type="logical" name="LRPAFORCE"> F  </i>
   <i type="logical" name="LFXC"> F  </i>
   <i type="logical" name="LHARTREE"> T  </i>
   <i type="int" name="IBSE">     0</i>
   <v type="int" name="KPOINT">    -1     0     0     0</v>
   <i type="logical" name="LTCTE"> F  </i>
   <i type="logical" name="LTETE"> F  </i>
   <i type="logical" name="LTRIPLET"> F  </i>
   <i type="logical" name="LFXCEPS"> F  </i>
   <i type="logical" name="LFXHEG"> F  </i>
   <i type="int" name="NATURALO">     2</i>
   <i type="logical" name="L2ORDER"> F  </i>
   <i type="logical" name="LMP2LT"> F  </i>
   <i type="logical" name="LUSEW"> F  </i>
   <i name="ENCUTGW">     -2.00000000</i>
   <i name="ENCUTGWSOFT">     -2.00000000</i>
   <i name="ENCUTLF">     -1.00000000</i>
   <i type="int" name="LMAXMP2">    -1</i>
   <i name="SCISSOR">      0.00000000</i>
   <i type="int" name="NOMEGA">     0</i>
   <i type="int" name="NOMEGAR">     0</i>
   <i type="int" name="NBANDSGW">    -1</i>
   <i type="int" name="NBANDSO">    -1</i>
   <i type="int" name="NBANDSV">    -1</i>
   <i type="int" name="NELM">   300</i>
   <i type="int" name="NELMHF">     1</i>
   <i type="int" name="DIM">     3</i>
   <i type="int" name="ANTIRES">     0</i>
   <i name="OMEGAMAX">    -30.00000000</i>
   <i name="OMEGAMIN">    -30.00000000</i>
   <i name="OMEGATL">   -200.00000000</i>
   <i type="int" name="OMEGAGRID">   140</i>
   <i name="CSHIFT">     -0.10000000</i>
   <i type="logical" name="SELFENERGY"> F  </i>
   <i type="logical" name="LSPECTRAL"> F  </i>
   <i type="logical" name="LSPECTRALGW"> F  </i>
   <i type="logical" name="LSINGLES"> F  </i>
   <i type="logical" name="LFERMIGW"> F  </i>
   <i type="logical" name="ODDONLYGW"> F  </i>
   <i type="logical" name="EVENONLYGW"> F  </i>
   <i type="int" name="NKREDLFX">     1</i>
   <i type="int" name="NKREDLFY">     1</i>
   <i type="int" name="NKREDLFZ">     1</i>
   <i type="int" name="MAXMEM">  2800</i>
   <i type="int" name="TELESCOPE">     0</i>
   <i type="int" name="TAUPAR">     1</i>
   <i type="int" name="OMEGAPAR">    -1</i>
   <i name="LAMBDA">      1.00000000</i>
  </separator>
  <separator name="External order field" >
   <i name="OFIELD_KAPPA">      0.00000000</i>
   <v name="OFIELD_K">      0.00000000      0.00000000      0.00000000</v>
   <i name="OFIELD_Q6_NEAR">      0.00000000</i>
   <i name="OFIELD_Q6_FAR">      0.00000000</i>
   <i name="OFIELD_A">      0.00000000</i>
  </separator>
 </parameters>
 <atominfo>
  <atoms>      63 </atoms>
  <types>       3 </types>
  <array name="atoms" >
   <dimension dim="1">ion</dimension>
   <field type="string">element</field>
   <field type="int">atomtype</field>
   <set>
    <rc><c>Mg</c><c>   1</c></rc>
    <rc><c>Mg</c><c>   1</c></rc>
    <rc><c>Mg</c><c>   1</c></rc>
    <rc><c>Mg</c><c>   1</c></rc>
    <rc><c>Mg</c><c>   1</c></rc>
    <rc><c>Mg</c><c>   1</c></rc>
    <rc><c>Mg</c><c>   1</c></rc>
    <rc><c>Mg</c><c>   1</c></rc>
    <rc><c>Mg</c><c>   1</c></rc>
    <rc><c>Mg</c><c>   1</c></rc>
    <rc><c>Mg</c><c>   1</c></rc>
    <rc><c>Mg</c><c>   1</c></rc>
    <rc><c>Mg</c><c>   1</c></rc>
    <rc><c>Mg</c><c>   1</c></rc>
    <rc><c>Mg</c><c>   1</c></rc>
    <rc><c>Mg</c><c>   1</c></rc>
    <rc><c>Mg</c><c>   1</c></rc>
    <rc><c>Mg</c><c>   1</c></rc>
    <rc><c>Mg</c><c>   1</c></rc>
    <rc><c>Mg</c><c>   1</c></rc>
    <rc><c>Mg</c><c>   1</c></rc>
    <rc><c>Mg</c><c>   1</c></rc>
    <rc><c>Mg</c><c>   1</c></rc>
    <rc><c>Mg</c><c>   1</c></rc>
    <rc><c>Mg</c><c>   1</c></rc>
    <rc><c>Mg</c><c>   1</c></rc>
    <rc><c>Mg</c><c>   1</c></rc>
    <rc><c>Mg</c><c>   1</c></rc>
    <rc><c>Mg</c><c>   1</c></rc>
    <rc><c>Mg</c><c>   1</c></rc>
    <rc><c>Mg</c><c>   1</c></rc>
    <rc><c>Mg</c><c>   1</c></rc>
    <rc><c>Mg</c><c>   1</c></rc>
    <rc><c>Mg</c><c>   1</c></rc>
    <rc><c>Mg</c><c>   1</c></rc>
    <rc><c>Mg</c><c>   1</c></rc>
    <rc><c>Mg</c><c>   1</c></rc>
    <rc><c>Mg</c><c>   1</c></rc>
    <rc><c>Mg</c><c>   1</c></rc>
    <rc><c>Mg</c><c>   1</c></rc>
    <rc><c>Mg</c><c>   1</c></rc>
    <rc><c>Mg</c><c>   1</c></rc>
    <rc><c>Mg</c><c>   1</c></rc>
    <rc><c>Mg</c><c>   1</c></rc>
    <rc><c>Mg</c><c>   1</c></rc>
    <rc><c>O </c><c>   2</c></rc>
    <rc><c>O </c><c>   2</c></rc>
    <rc><c>O </c><c>   2</c></rc>
    <rc><c>O </c><c>   2</c></rc>
    <rc><c>O </c><c>   2</c></rc>
    <rc><c>O </c><c>   2</c></rc>
    <rc><c>H </c><c>   3</c></rc>
    <rc><c>H </c><c>   3</c></rc>
    <rc><c>H </c><c>   3</c></rc>
    <rc><c>H </c><c>   3</c></rc>
    <rc><c>H </c><c>   3</c></rc>
    <rc><c>H </c><c>   3</c></rc>
    <rc><c>H </c><c>   3</c></rc>
    <rc><c>H </c><c>   3</c></rc>
    <rc><c>H </c><c>   3</c></rc>
    <rc><c>H </c><c>   3</c></rc>
    <rc><c>H </c><c>   3</c></rc>
    <rc><c>H </c><c>   3</c></rc>
   </set>
  </array>
  <array name="atomtypes" >
   <dimension dim="1">type</dimension>
   <field type="int">atomspertype</field>
   <field type="string">element</field>
   <field>mass</field>
   <field>valence</field>
   <field type="string">pseudopotential</field>
   <set>
    <rc><c>  45</c><c>Mg</c><c>     24.30500000</c><c>      2.00000000</c><c>  PAW_PBE Mg 13Apr2007                  </c></rc>
    <rc><c>   6</c><c>O </c><c>     16.00000000</c><c>      6.00000000</c><c>  PAW_PBE O 08Apr2002                   </c></rc>
    <rc><c>  12</c><c>H </c><c>      1.00000000</c><c>      1.00000000</c><c>  PAW_PBE H 15Jun2001                   </c></rc>
   </set>
  </array>
 </atominfo>
 <structure name="initialpos" >
  <crystal>
   <varray name="basis" >
    <v>       9.55575275       0.00000000       0.00000000 </v>
    <v>      -4.77787638       8.27552464       0.00000000 </v>
    <v>       0.00000000       0.00000000      32.62509537 </v>
   </varray>
   <i name="volume">   2579.95558872 </i>
   <varray name="rec_basis" >
    <v>       0.10464900       0.06041913       0.00000000 </v>
    <v>       0.00000000       0.12083826       0.00000000 </v>
    <v>       0.00000000       0.00000000       0.03065125 </v>
   </varray>
  </crystal>
  <varray name="positions" >
   <v>       0.00000000       0.00000000       0.00000000 </v>
   <v>       0.99743091       0.99913719       0.15854981 </v>
   <v>       0.99774045       0.00401705       0.32958637 </v>
   <v>       0.00000001       0.33333336       0.00000000 </v>
   <v>       0.99874958       0.33451420       0.15732467 </v>
   <v>       0.98838392       0.33299554       0.31147397 </v>
   <v>       0.00000002       0.66666672       0.00000000 </v>
   <v>       0.99721553       0.66700290       0.15813416 </v>
   <v>       0.00168269       0.67236819       0.31500802 </v>
   <v>       0.33333334       0.00000000       0.00000000 </v>
   <v>       0.33077984       0.99949202       0.15769135 </v>
   <v>       0.32608188       0.99677778       0.31160937 </v>
   <v>       0.33333335       0.33333336       0.00000000 </v>
   <v>       0.33125344       0.33228313       0.15706061 </v>
   <v>       0.31623285       0.32056765       0.31119214 </v>
   <v>       0.33333336       0.66666672       0.00000000 </v>
   <v>       0.33095960       0.66678256       0.15827268 </v>
   <v>       0.31601228       0.66774520       0.33078020 </v>
   <v>       0.66666668       0.00000000       0.00000000 </v>
   <v>       0.66475753       0.99855512       0.15775143 </v>
   <v>       0.66399078       0.00868025       0.31375995 </v>
   <v>       0.66666668       0.33333336       0.00000000 </v>
   <v>       0.66478960       0.33529507       0.15867491 </v>
   <v>       0.65886269       0.32322598       0.32709706 </v>
   <v>       0.66666670       0.66666672       0.00000000 </v>
   <v>       0.66648689       0.66691700       0.15892082 </v>
   <v>       0.66645781       0.67370651       0.32287925 </v>
   <v>       0.11111113       0.22222222       0.07982145 </v>
   <v>       0.10481404       0.22081009       0.23535376 </v>
   <v>       0.11111114       0.55555561       0.07982145 </v>
   <v>       0.11153087       0.55871488       0.23664425 </v>
   <v>       0.11111116       0.88888894       0.07982145 </v>
   <v>       0.10569560       0.88962357       0.23603401 </v>
   <v>       0.44444450       0.22222222       0.07982145 </v>
   <v>       0.44371269       0.22425585       0.23623825 </v>
   <v>       0.44444450       0.55555561       0.07982145 </v>
   <v>       0.44207581       0.55602292       0.23546317 </v>
   <v>       0.44444451       0.88888894       0.07982145 </v>
   <v>       0.44078340       0.88462079       0.23657554 </v>
   <v>       0.77777779       0.22222222       0.07982145 </v>
   <v>       0.77195064       0.22193945       0.23470263 </v>
   <v>       0.77777781       0.55555561       0.07982145 </v>
   <v>       0.76958556       0.55149644       0.24108476 </v>
   <v>       0.77777784       0.88888894       0.07982145 </v>
   <v>       0.77565678       0.88702446       0.24011716 </v>
   <v>       0.98708744       0.99813234       0.39416794 </v>
   <v>       0.26353542       0.99366246       0.41721661 </v>
   <v>       0.90937106       0.23487682       0.41574400 </v>
   <v>       0.62680847       0.36400313       0.38934946 </v>
   <v>       0.63671534       0.63923723       0.38418541 </v>
   <v>       0.37630392       0.65637814       0.39124315 </v>
   <v>       0.96614185       0.08065245       0.40686430 </v>
   <v>       0.08453738       0.00482257       0.40734355 </v>
   <v>       0.36090918       0.09801129       0.41194365 </v>
   <v>       0.25338304       0.92968334       0.39240335 </v>
   <v>       0.00939767       0.33930136       0.41382363 </v>
   <v>       0.86048410       0.22129739       0.38806320 </v>
   <v>       0.63165048       0.47512681       0.39160120 </v>
   <v>       0.70324496       0.36325279       0.40914003 </v>
   <v>       0.72872187       0.72437282       0.39908084 </v>
   <v>       0.43055640       0.55257318       0.31717282 </v>
   <v>       0.38419387       0.73692937       0.41086690 </v>
   <v>       0.48249352       0.65122952       0.39272485 </v>
  </varray>
  <varray name="selective"  type="logical" >
   <v type="logical" >  F  F  F </v>
   <v type="logical" >  T  T  T </v>
   <v type="logical" >  T  T  T </v>
   <v type="logical" >  F  F  F </v>
   <v type="logical" >  T  T  T </v>
   <v type="logical" >  T  T  T </v>
   <v type="logical" >  F  F  F </v>
   <v type="logical" >  T  T  T </v>
   <v type="logical" >  T  T  T </v>
   <v type="logical" >  F  F  F </v>
   <v type="logical" >  T  T  T </v>
   <v type="logical" >  T  T  T </v>
   <v type="logical" >  F  F  F </v>
   <v type="logical" >  T  T  T </v>
   <v type="logical" >  T  T  T </v>
   <v type="logical" >  F  F  F </v>
   <v type="logical" >  T  T  T </v>
   <v type="logical" >  T  T  T </v>
   <v type="logical" >  F  F  F </v>
   <v type="logical" >  T  T  T </v>
   <v type="logical" >  T  T  T </v>
   <v type="logical" >  F  F  F </v>
   <v type="logical" >  T  T  T </v>
   <v type="logical" >  T  T  T </v>
   <v type="logical" >  F  F  F </v>
   <v type="logical" >  T  T  T </v>
   <v type="logical" >  T  T  T </v>
   <v type="logical" >  F  F  F </v>
   <v type="logical" >  T  T  T </v>
   <v type="logical" >  F  F  F </v>
   <v type="logical" >  T  T  T </v>
   <v type="logical" >  F  F  F </v>
   <v type="logical" >  T  T  T </v>
   <v type="logical" >  F  F  F </v>
   <v type="logical" >  T  T  T </v>
   <v type="logical" >  F  F  F </v>
   <v type="logical" >  T  T  T </v>
   <v type="logical" >  F  F  F </v>
   <v type="logical" >  T  T  T </v>
   <v type="logical" >  F  F  F </v>
   <v type="logical" >  T  T  T </v>
   <v type="logical" >  F  F  F </v>
   <v type="logical" >  T  T  T </v>
   <v type="logical" >  F  F  F </v>
   <v type="logical" >  T  T  T </v>
   <v type="logical" >  T  T  T </v>
   <v type="logical" >  T  T  T </v>
   <v type="logical" >  T  T  T </v>
   <v type="logical" >  T  T  T </v>
   <v type="logical" >  T  T  T </v>
   <v type="logical" >  T  T  T </v>
   <v type="logical" >  T  T  T </v>
   <v type="logical" >  T  T  T </v>
   <v type="logical" >  T  T  T </v>
   <v type="logical" >  T  T  T </v>
   <v type="logical" >  T  T  T </v>
   <v type="logical" >  T  T  T </v>
   <v type="logical" >  T  T  T </v>
   <v type="logical" >  T  T  T </v>
   <v type="logical" >  T  T  T </v>
   <v type="logical" >  T  T  T </v>
   <v type="logical" >  T  T  T </v>
   <v type="logical" >  T  T  T </v>
  </varray>
  <nose>
   <v>      -3.00000000       0.00000000       0.00010000       0.00010000 </v>
  </nose>
 </structure>
 <calculation>
  <scstep>
   <time name="diag">    0.48    0.49</time>
   <time name="diis">    1.05    1.05</time>
   <time name="orth">    0.07    0.07</time>
   <time name="total">    7.36    7.47</time>
   <dipole>
    <v name="dipole">      0.00000000       0.00000000      -0.00038486 </v>
    <i name="Tr[quadrupol]">  -1919.93599875 </i>
    <i name="Echarged">      0.00000000 </i>
    <i name="Edipol_quadrupol">      0.00000000 </i>
    <i name="Eion">      0.00000000 </i>
   </dipole>
   <energy>
    <i name="alphaZ">     63.16494263 </i>
    <i name="ewald">  13031.30337775 </i>
    <i name="hartreedc"> -16257.77422111 </i>
    <i name="XCdc">  -2050.91769181 </i>
    <i name="pawpsdc">   5135.15659847 </i>
    <i name="pawaedc">  -2719.01140655 </i>
    <i name="eentropy">      0.00000000 </i>
    <i name="bandstr">    210.63010494 </i>
    <i name="atom">   3827.98814510 </i>
    <i name="e_fr_energy">   1240.53984943 </i>
    <i name="e_wo_entrp">   1240.53984943 </i>
    <i name="e_0_energy">   1240.53984943 </i>
   </energy>
  </scstep>
  <scstep>
   <time name="diag">    0.49    0.51</time>
   <time name="diis">    1.05    1.05</time>
   <time name="orth">    0.07    0.07</time>
   <time name="total">    1.61    1.63</time>
   <dipole>
    <v name="dipole">      0.00000000       0.00000000      -0.00038486 </v>
    <i name="Tr[quadrupol]">  -1919.93599875 </i>
    <i name="Echarged">      0.00000000 </i>
    <i name="Edipol_quadrupol">      0.00000000 </i>
    <i name="Eion">      0.00000000 </i>
   </dipole>
   <energy>
    <i name="e_fr_energy">    545.39846742 </i>
    <i name="e_wo_entrp">    545.39846742 </i>
    <i name="e_0_energy">    545.39846742 </i>
   </energy>
  </scstep>
  <scstep>
   <time name="diag">    0.49    0.51</time>
   <time name="diis">    1.05    1.05</time>
   <time name="orth">    0.07    0.07</time>
   <time name="total">    1.61    1.64</time>
   <dipole>
    <v name="dipole">      0.00000000       0.00000000      -0.00038486 </v>
    <i name="Tr[quadrupol]">  -1919.93599875 </i>
    <i name="Echarged">      0.00000000 </i>
    <i name="Edipol_quadrupol">      0.00000000 </i>
    <i name="Eion">      0.00000000 </i>
   </dipole>
   <energy>
    <i name="e_fr_energy">    310.52237727 </i>
    <i name="e_wo_entrp">    310.52237727 </i>
    <i name="e_0_energy">    310.52237727 </i>
   </energy>
  </scstep>
  <scstep>
   <time name="diag">    0.50    0.51</time>
   <time name="diis">    1.05    1.05</time>
   <time name="orth">    0.07    0.07</time>
   <time name="total">    1.62    1.64</time>
   <dipole>
    <v name="dipole">      0.00000000       0.00000000      -0.00038486 </v>
    <i name="Tr[quadrupol]">  -1919.93599875 </i>
    <i name="Echarged">      0.00000000 </i>
    <i name="Edipol_quadrupol">      0.00000000 </i>
    <i name="Eion">      0.00000000 </i>
   </dipole>
   <energy>
    <i name="e_fr_energy">    139.62086709 </i>
    <i name="e_wo_entrp">    139.62086709 </i>
    <i name="e_0_energy">    139.62086709 </i>
   </energy>
  </scstep>
  <scstep>
   <time name="diag">    0.49    0.51</time>
   <time name="diis">    1.06    1.07</time>
   <time name="orth">    0.07    0.07</time>
   <time name="total">    1.63    1.65</time>
   <dipole>
    <v name="dipole">      0.00000000       0.00000000      -0.00038486 </v>
    <i name="Tr[quadrupol]">  -1919.93599875 </i>
    <i name="Echarged">      0.00000000 </i>
    <i name="Edipol_quadrupol">      0.00000000 </i>
    <i name="Eion">      0.00000000 </i>
   </dipole>
   <energy>
    <i name="e_fr_energy">     24.78426963 </i>
    <i name="e_wo_entrp">     24.78426963 </i>
    <i name="e_0_energy">     24.78426963 </i>
   </energy>
  </scstep>
  <scstep>
   <time name="diag">    0.49    0.52</time>
   <time name="diis">    1.06    1.06</time>
   <time name="orth">    0.07    0.07</time>
   <time name="total">    1.63    1.65</time>
   <dipole>
    <v name="dipole">      0.00000000       0.00000000      -0.00038486 </v>
    <i name="Tr[quadrupol]">  -1919.93599875 </i>
    <i name="Echarged">      0.00000000 </i>
    <i name="Edipol_quadrupol">      0.00000000 </i>
    <i name="Eion">      0.00000000 </i>
   </dipole>
   <energy>
    <i name="e_fr_energy">    -41.26505176 </i>
    <i name="e_wo_entrp">    -41.26505176 </i>
    <i name="e_0_energy">    -41.26505176 </i>
   </energy>
  </scstep>
  <scstep>
   <time name="diag">    0.49    0.51</time>
   <time name="diis">    1.05    1.05</time>
   <time name="orth">    0.07    0.07</time>
   <time name="total">    1.61    1.63</time>
   <dipole>
    <v name="dipole">      0.00000000       0.00000000      -0.00038486 </v>
    <i name="Tr[quadrupol]">  -1919.93599875 </i>
    <i name="Echarged">      0.00000000 </i>
    <i name="Edipol_quadrupol">      0.00000000 </i>
    <i name="Eion">      0.00000000 </i>
   </dipole>
   <energy>
    <i name="e_fr_energy">    -70.04423198 </i>
    <i name="e_wo_entrp">    -70.04423198 </i>
    <i name="e_0_energy">    -70.04423198 </i>
   </energy>
  </scstep>
  <scstep>
   <time name="diag">    0.50    0.51</time>
   <time name="diis">    1.05    1.05</time>
   <time name="orth">    0.07    0.07</time>
   <time name="total">    1.62    1.63</time>
   <dipole>
    <v name="dipole">      0.00000000       0.00000000      -0.00038486 </v>
    <i name="Tr[quadrupol]">  -1919.93599875 </i>
    <i name="Echarged">      0.00000000 </i>
    <i name="Edipol_quadrupol">      0.00000000 </i>
    <i name="Eion">      0.00000000 </i>
   </dipole>
   <energy>
    <i name="e_fr_energy">    -78.16276350 </i>
    <i name="e_wo_entrp">    -78.16276350 </i>
    <i name="e_0_energy">    -78.16276350 </i>
   </energy>
  </scstep>
  <scstep>
   <time name="diag">    0.49    0.51</time>
   <time name="diis">    2.69    2.70</time>
   <time name="orth">    0.07    0.07</time>
   <time name="total">    3.26    3.28</time>
   <dipole>
    <v name="dipole">      0.00000000       0.00000000      -0.00038486 </v>
    <i name="Tr[quadrupol]">  -1919.93599875 </i>
    <i name="Echarged">      0.00000000 </i>
    <i name="Edipol_quadrupol">      0.00000000 </i>
    <i name="Eion">      0.00000000 </i>
   </dipole>
   <energy>
    <i name="e_fr_energy">    -80.63260413 </i>
    <i name="e_wo_entrp">    -80.63260413 </i>
    <i name="e_0_energy">    -80.63260413 </i>
   </energy>
  </scstep>
  <scstep>
   <time name="diag">    0.49    0.51</time>
   <time name="diis">    3.20    3.20</time>
   <time name="orth">    0.07    0.07</time>
   <time name="total">    3.77    3.79</time>
   <dipole>
    <v name="dipole">      0.00000000       0.00000000      -0.00038486 </v>
    <i name="Tr[quadrupol]">  -1919.93599875 </i>
    <i name="Echarged">      0.00000000 </i>
    <i name="Edipol_quadrupol">      0.00000000 </i>
    <i name="Eion">      0.00000000 </i>
   </dipole>
   <energy>
    <i name="e_fr_energy">    -80.92773053 </i>
    <i name="e_wo_entrp">    -80.92773053 </i>
    <i name="e_0_energy">    -80.92773053 </i>
   </energy>
  </scstep>
  <scstep>
   <time name="diag">    0.49    0.51</time>
   <time name="diis">    3.12    3.12</time>
   <time name="orth">    0.07    0.07</time>
   <time name="total">    3.69    3.71</time>
   <dipole>
    <v name="dipole">      0.00000000       0.00000000      -0.00038486 </v>
    <i name="Tr[quadrupol]">  -1919.93599875 </i>
    <i name="Echarged">      0.00000000 </i>
    <i name="Edipol_quadrupol">      0.00000000 </i>
    <i name="Eion">      0.00000000 </i>
   </dipole>
   <energy>
    <i name="e_fr_energy">    -80.92796928 </i>
    <i name="e_wo_entrp">    -80.92796928 </i>
    <i name="e_0_energy">    -80.92796928 </i>
   </energy>
  </scstep>
  <scstep>
   <time name="diag">    0.50    0.51</time>
   <time name="diis">    3.28    3.28</time>
   <time name="orth">    0.07    0.07</time>
   <time name="total">    3.98    4.00</time>
   <dipole>
    <v name="dipole">      0.00000000       0.00000000      -0.00038486 </v>
    <i name="Tr[quadrupol]">  -1919.93599875 </i>
    <i name="Echarged">      0.00000000 </i>
    <i name="Edipol_quadrupol">      0.00000000 </i>
    <i name="Eion">      0.00000000 </i>
   </dipole>
   <energy>
    <i name="e_fr_energy">    -80.93047571 </i>
    <i name="e_wo_entrp">    -80.93047571 </i>
    <i name="e_0_energy">    -80.93047571 </i>
   </energy>
  </scstep>
  <scstep>
   <time name="diag">    0.48    0.48</time>
   <time name="diis">    2.60    2.60</time>
   <time name="orth">    0.07    0.07</time>
   <time name="total">    8.35    8.38</time>
   <dipole>
    <v name="dipole">      0.00000000       0.00000000       0.55908154 </v>
    <i name="Tr[quadrupol]">  -1931.05069983 </i>
    <i name="Echarged">      0.00000000 </i>
    <i name="Edipol_quadrupol">      0.00000000 </i>
    <i name="Eion">      0.00000000 </i>
   </dipole>
   <energy>
    <i name="e_fr_energy">    -71.02399549 </i>
    <i name="e_wo_entrp">    -71.02399549 </i>
    <i name="e_0_energy">    -71.02399549 </i>
   </energy>
  </scstep>
  <scstep>
   <time name="diag">    0.49    0.49</time>
   <time name="diis">    2.92    2.92</time>
   <time name="orth">    0.07    0.07</time>
   <time name="total">    8.71    8.75</time>
   <dipole>
    <v name="dipole">      0.00000000       0.00000000      -2.00610041 </v>
    <i name="Tr[quadrupol]">  -1917.07337372 </i>
    <i name="Echarged">      0.00000000 </i>
    <i name="Edipol_quadrupol">      0.00000000 </i>
    <i name="Eion">      0.00000000 </i>
   </dipole>
   <energy>
    <i name="e_fr_energy">    -96.16995615 </i>
    <i name="e_wo_entrp">    -96.16995615 </i>
    <i name="e_0_energy">    -96.16995615 </i>
   </energy>
  </scstep>
  <scstep>
   <time name="diag">    0.48    0.48</time>
   <time name="diis">    2.73    2.74</time>
   <time name="orth">    0.07    0.07</time>
   <time name="total">    8.53    8.58</time>
   <dipole>
    <v name="dipole">      0.00000000       0.00000000       0.12590776 </v>
    <i name="Tr[quadrupol]">  -1928.88308458 </i>
    <i name="Echarged">      0.00000000 </i>
    <i name="Edipol_quadrupol">      0.00000000 </i>
    <i name="Eion">      0.00000000 </i>
   </dipole>
   <energy>
    <i name="e_fr_energy">    -69.68447016 </i>
    <i name="e_wo_entrp">    -69.68447016 </i>
    <i name="e_0_energy">    -69.68447016 </i>
   </energy>
  </scstep>
  <scstep>
   <time name="diag">    0.48    0.48</time>
   <time name="diis">    2.95    2.95</time>
   <time name="orth">    0.07    0.07</time>
   <time name="total">    8.94    8.96</time>
   <dipole>
    <v name="dipole">      0.00000000       0.00000000       0.14887756 </v>
    <i name="Tr[quadrupol]">  -1933.88484188 </i>
    <i name="Echarged">      0.00000000 </i>
    <i name="Edipol_quadrupol">      0.00000000 </i>
    <i name="Eion">      0.00000000 </i>
   </dipole>
   <energy>
    <i name="e_fr_energy">    -69.68997375 </i>
    <i name="e_wo_entrp">    -69.68997375 </i>
    <i name="e_0_energy">    -69.68997375 </i>
   </energy>
  </scstep>
  <scstep>
   <time name="diag">    0.48    0.48</time>
   <time name="diis">    2.45    2.45</time>
   <time name="orth">    0.07    0.07</time>
   <time name="total">    8.20    8.22</time>
   <dipole>
    <v name="dipole">      0.00000000       0.00000000      -0.18291223 </v>
    <i name="Tr[quadrupol]">  -1932.29794307 </i>
    <i name="Echarged">      0.00000000 </i>
    <i name="Edipol_quadrupol">      0.00000000 </i>
    <i name="Eion">      0.00000000 </i>
   </dipole>
   <energy>
    <i name="e_fr_energy">    -69.34812295 </i>
    <i name="e_wo_entrp">    -69.34812295 </i>
    <i name="e_0_energy">    -69.34812295 </i>
   </energy>
  </scstep>
  <scstep>
   <time name="diag">    0.48    0.48</time>
   <time name="diis">    2.81    2.81</time>
   <time name="orth">    0.07    0.07</time>
   <time name="total">    8.55    8.57</time>
   <dipole>
    <v name="dipole">      0.00000000       0.00000000      -0.23427817 </v>
    <i name="Tr[quadrupol]">  -1933.09726542 </i>
    <i name="Echarged">      0.00000000 </i>
    <i name="Edipol_quadrupol">      0.00000000 </i>
    <i name="Eion">      0.00000000 </i>
   </dipole>
   <energy>
    <i name="e_fr_energy">    -69.32744400 </i>
    <i name="e_wo_entrp">    -69.32744400 </i>
    <i name="e_0_energy">    -69.32744400 </i>
   </energy>
  </scstep>
  <scstep>
   <time name="diag">    0.48    0.48</time>
   <time name="diis">    2.57    2.57</time>
   <time name="orth">    0.07    0.07</time>
   <time name="total">    8.32    8.34</time>
   <dipole>
    <v name="dipole">      0.00000000       0.00000000      -0.24958498 </v>
    <i name="Tr[quadrupol]">  -1933.96534591 </i>
    <i name="Echarged">      0.00000000 </i>
    <i name="Edipol_quadrupol">      0.00000000 </i>
    <i name="Eion">      0.00000000 </i>
   </dipole>
   <energy>
    <i name="e_fr_energy">    -69.32634571 </i>
    <i name="e_wo_entrp">    -69.32634571 </i>
    <i name="e_0_energy">    -69.32634571 </i>
   </energy>
  </scstep>
  <scstep>
   <time name="diag">    0.48    0.48</time>
   <time name="diis">    2.81    2.82</time>
   <time name="orth">    0.07    0.07</time>
   <time name="total">    8.55    8.58</time>
   <dipole>
    <v name="dipole">      0.00000000       0.00000000      -0.26902465 </v>
    <i name="Tr[quadrupol]">  -1934.48911584 </i>
    <i name="Echarged">      0.00000000 </i>
    <i name="Edipol_quadrupol">      0.00000000 </i>
    <i name="Eion">      0.00000000 </i>
   </dipole>
   <energy>
    <i name="e_fr_energy">    -69.32633911 </i>
    <i name="e_wo_entrp">    -69.32633911 </i>
    <i name="e_0_energy">    -69.32633911 </i>
   </energy>
  </scstep>
  <scstep>
   <time name="diag">    0.48    0.48</time>
   <time name="diis">    2.58    2.58</time>
   <time name="orth">    0.07    0.07</time>
   <time name="total">    8.33    8.35</time>
   <dipole>
    <v name="dipole">      0.00000000       0.00000000      -0.27030949 </v>
    <i name="Tr[quadrupol]">  -1935.04494051 </i>
    <i name="Echarged">      0.00000000 </i>
    <i name="Edipol_quadrupol">      0.00000000 </i>
    <i name="Eion">      0.00000000 </i>
   </dipole>
   <energy>
    <i name="e_fr_energy">    -69.32301206 </i>
    <i name="e_wo_entrp">    -69.32301206 </i>
    <i name="e_0_energy">    -69.32301206 </i>
   </energy>
  </scstep>
  <scstep>
   <time name="diag">    0.48    0.48</time>
   <time name="diis">    2.74    2.74</time>
   <time name="orth">    0.07    0.07</time>
   <time name="total">    8.62    8.66</time>
   <dipole>
    <v name="dipole">      0.00000000       0.00000000      -0.26611953 </v>
    <i name="Tr[quadrupol]">  -1935.15656563 </i>
    <i name="Echarged">      0.00000000 </i>
    <i name="Edipol_quadrupol">      0.00000000 </i>
    <i name="Eion">      0.00000000 </i>
   </dipole>
   <energy>
    <i name="e_fr_energy">    -69.31921822 </i>
    <i name="e_wo_entrp">    -69.31921822 </i>
    <i name="e_0_energy">    -69.31921822 </i>
   </energy>
  </scstep>
  <scstep>
   <time name="diag">    0.48    0.48</time>
   <time name="diis">    2.25    2.25</time>
   <time name="orth">    0.07    0.07</time>
   <time name="total">    8.00    8.02</time>
   <dipole>
    <v name="dipole">      0.00000000       0.00000000      -0.26194154 </v>
    <i name="Tr[quadrupol]">  -1935.35883942 </i>
    <i name="Echarged">      0.00000000 </i>
    <i name="Edipol_quadrupol">      0.00000000 </i>
    <i name="Eion">      0.00000000 </i>
   </dipole>
   <energy>
    <i name="e_fr_energy">    -69.31644990 </i>
    <i name="e_wo_entrp">    -69.31644990 </i>
    <i name="e_0_energy">    -69.31644990 </i>
   </energy>
  </scstep>
  <scstep>
   <time name="diag">    0.48    0.48</time>
   <time name="diis">    2.06    2.06</time>
   <time name="orth">    0.07    0.07</time>
   <time name="total">    7.80    7.82</time>
   <dipole>
    <v name="dipole">      0.00000000       0.00000000      -0.25238256 </v>
    <i name="Tr[quadrupol]">  -1935.56961504 </i>
    <i name="Echarged">      0.00000000 </i>
    <i name="Edipol_quadrupol">      0.00000000 </i>
    <i name="Eion">      0.00000000 </i>
   </dipole>
   <energy>
    <i name="e_fr_energy">    -69.31744132 </i>
    <i name="e_wo_entrp">    -69.31744132 </i>
    <i name="e_0_energy">    -69.31744132 </i>
   </energy>
  </scstep>
  <scstep>
   <time name="diag">    0.48    0.48</time>
   <time name="diis">    1.99    1.99</time>
   <time name="orth">    0.07    0.07</time>
   <time name="total">    7.74    7.77</time>
   <dipole>
    <v name="dipole">      0.00000000       0.00000000      -0.24650224 </v>
    <i name="Tr[quadrupol]">  -1935.64637809 </i>
    <i name="Echarged">      0.00000000 </i>
    <i name="Edipol_quadrupol">      0.00000000 </i>
    <i name="Eion">      0.00000000 </i>
   </dipole>
   <energy>
    <i name="e_fr_energy">    -69.31789049 </i>
    <i name="e_wo_entrp">    -69.31789049 </i>
    <i name="e_0_energy">    -69.31789049 </i>
   </energy>
  </scstep>
  <scstep>
   <time name="diag">    0.48    0.48</time>
   <time name="diis">    1.91    1.91</time>
   <time name="orth">    0.07    0.07</time>
   <time name="total">    7.66    7.67</time>
   <dipole>
    <v name="dipole">      0.00000000       0.00000000      -0.24184710 </v>
    <i name="Tr[quadrupol]">  -1935.68766455 </i>
    <i name="Echarged">      0.00000000 </i>
    <i name="Edipol_quadrupol">      0.00000000 </i>
    <i name="Eion">      0.00000000 </i>
   </dipole>
   <energy>
    <i name="e_fr_energy">    -69.31772877 </i>
    <i name="e_wo_entrp">    -69.31772877 </i>
    <i name="e_0_energy">    -69.31772877 </i>
   </energy>
  </scstep>
  <scstep>
   <time name="diag">    0.52    0.52</time>
   <time name="diis">    1.85    1.85</time>
   <time name="orth">    0.07    0.07</time>
   <time name="total">    7.82    7.85</time>
   <dipole>
    <v name="dipole">      0.00000000       0.00000000      -0.23961798 </v>
    <i name="Tr[quadrupol]">  -1935.72254488 </i>
    <i name="Echarged">      0.00000000 </i>
    <i name="Edipol_quadrupol">      0.00000000 </i>
    <i name="Eion">      0.00000000 </i>
   </dipole>
   <energy>
    <i name="e_fr_energy">    -69.31771117 </i>
    <i name="e_wo_entrp">    -69.31771117 </i>
    <i name="e_0_energy">    -69.31771117 </i>
   </energy>
  </scstep>
  <scstep>
   <time name="diag">    0.48    0.48</time>
   <time name="diis">    1.68    1.68</time>
   <time name="orth">    0.07    0.07</time>
   <time name="total">    7.46    7.48</time>
   <dipole>
    <v name="dipole">      0.00000000       0.00000000      -0.23804051 </v>
    <i name="Tr[quadrupol]">  -1935.71892122 </i>
    <i name="Echarged">      0.00000000 </i>
    <i name="Edipol_quadrupol">      0.00000000 </i>
    <i name="Eion">      0.00000000 </i>
   </dipole>
   <energy>
    <i name="e_fr_energy">    -69.31775579 </i>
    <i name="e_wo_entrp">    -69.31775579 </i>
    <i name="e_0_energy">    -69.31775579 </i>
   </energy>
  </scstep>
  <scstep>
   <time name="diag">    0.48    0.48</time>
   <time name="diis">    1.62    1.63</time>
   <time name="orth">    0.07    0.07</time>
   <time name="total">    7.38    7.40</time>
   <dipole>
    <v name="dipole">      0.00000000       0.00000000      -0.23799425 </v>
    <i name="Tr[quadrupol]">  -1935.65222222 </i>
    <i name="Echarged">      0.00000000 </i>
    <i name="Edipol_quadrupol">      0.00000000 </i>
    <i name="Eion">      0.00000000 </i>
   </dipole>
   <energy>
    <i name="e_fr_energy">    -69.31777314 </i>
    <i name="e_wo_entrp">    -69.31777314 </i>
    <i name="e_0_energy">    -69.31777314 </i>
   </energy>
  </scstep>
  <scstep>
   <time name="diag">    0.48    0.48</time>
   <time name="diis">    1.53    1.53</time>
   <time name="orth">    0.07    0.07</time>
   <time name="total">    7.16    7.18</time>
   <dipole>
    <v name="dipole">      0.00000000       0.00000000      -0.23792951 </v>
    <i name="Tr[quadrupol]">  -1935.96134569 </i>
    <i name="Echarged">      0.00000000 </i>
    <i name="Edipol_quadrupol">      0.00000000 </i>
    <i name="Eion">      0.00000000 </i>
   </dipole>
   <energy>
    <i name="alphaZ">     63.90453670 </i>
    <i name="ewald">  13031.30337775 </i>
    <i name="hartreedc"> -16494.79051723 </i>
    <i name="XCdc">  -2034.53688768 </i>
    <i name="pawpsdc">   5965.65302675 </i>
    <i name="pawaedc">  -3551.99249078 </i>
    <i name="eentropy">      0.00000000 </i>
    <i name="bandstr">   -876.84696020 </i>
    <i name="atom">   3827.98814510 </i>
    <i name="e_fr_energy">    -69.31776958 </i>
    <i name="e_wo_entrp">    -69.31776958 </i>
    <i name="e_0_energy">    -69.31776958 </i>
   </energy>
  </scstep>
  <structure>
   <crystal>
    <varray name="basis" >
     <v>       9.55575275       0.00000000       0.00000000 </v>
     <v>      -4.77787638       8.27552464       0.00000000 </v>
     <v>       0.00000000       0.00000000      32.62509537 </v>
    </varray>
    <i name="volume">   2579.95558872 </i>
    <varray name="rec_basis" >
     <v>       0.10464900       0.06041913       0.00000000 </v>
     <v>       0.00000000       0.12083826       0.00000000 </v>
     <v>       0.00000000       0.00000000       0.03065125 </v>
    </varray>
   </crystal>
   <varray name="positions" >
    <v>       0.00000000       0.00000000       0.00000000 </v>
    <v>       0.99743091       0.99913719       0.15854981 </v>
    <v>       0.99774045       0.00401705       0.32958637 </v>
    <v>       0.00000001       0.33333336       0.00000000 </v>
    <v>       0.99874958       0.33451420       0.15732467 </v>
    <v>       0.98838392       0.33299554       0.31147397 </v>
    <v>       0.00000002       0.66666672       0.00000000 </v>
    <v>       0.99721553       0.66700290       0.15813416 </v>
    <v>       0.00168269       0.67236819       0.31500802 </v>
    <v>       0.33333334       0.00000000       0.00000000 </v>
    <v>       0.33077984       0.99949202       0.15769135 </v>
    <v>       0.32608188       0.99677778       0.31160937 </v>
    <v>       0.33333335       0.33333336       0.00000000 </v>
    <v>       0.33125344       0.33228313       0.15706061 </v>
    <v>       0.31623285       0.32056765       0.31119214 </v>
    <v>       0.33333336       0.66666672       0.00000000 </v>
    <v>       0.33095960       0.66678256       0.15827268 </v>
    <v>       0.31601228       0.66774520       0.33078020 </v>
    <v>       0.66666668       0.00000000       0.00000000 </v>
    <v>       0.66475753       0.99855512       0.15775143 </v>
    <v>       0.66399078       0.00868025       0.31375995 </v>
    <v>       0.66666668       0.33333336       0.00000000 </v>
    <v>       0.66478960       0.33529507       0.15867491 </v>
    <v>       0.65886269       0.32322598       0.32709706 </v>
    <v>       0.66666670       0.66666672       0.00000000 </v>
    <v>       0.66648689       0.66691700       0.15892082 </v>
    <v>       0.66645781       0.67370651       0.32287925 </v>
    <v>       0.11111113       0.22222222       0.07982145 </v>
    <v>       0.10481404       0.22081009       0.23535376 </v>
    <v>       0.11111114       0.55555561       0.07982145 </v>
    <v>       0.11153087       0.55871488       0.23664425 </v>
    <v>       0.11111116       0.88888894       0.07982145 </v>
    <v>       0.10569560       0.88962357       0.23603401 </v>
    <v>       0.44444450       0.22222222       0.07982145 </v>
    <v>       0.44371269       0.22425585       0.23623825 </v>
    <v>       0.44444450       0.55555561       0.07982145 </v>
    <v>       0.44207581       0.55602292       0.23546317 </v>
    <v>       0.44444451       0.88888894       0.07982145 </v>
    <v>       0.44078340       0.88462079       0.23657554 </v>
    <v>       0.77777779       0.22222222       0.07982145 </v>
    <v>       0.77195064       0.22193945       0.23470263 </v>
    <v>       0.77777781       0.55555561       0.07982145 </v>
    <v>       0.76958556       0.55149644       0.24108476 </v>
    <v>       0.77777784       0.88888894       0.07982145 </v>
    <v>       0.77565678       0.88702446       0.24011716 </v>
    <v>       0.98708744       0.99813234       0.39416794 </v>
    <v>       0.26353542       0.99366246       0.41721661 </v>
    <v>       0.90937106       0.23487682       0.41574400 </v>
    <v>       0.62680847       0.36400313       0.38934946 </v>
    <v>       0.63671534       0.63923723       0.38418541 </v>
    <v>       0.37630392       0.65637814       0.39124315 </v>
    <v>       0.96614185       0.08065245       0.40686430 </v>
    <v>       0.08453738       0.00482257       0.40734355 </v>
    <v>       0.36090918       0.09801129       0.41194365 </v>
    <v>       0.25338304       0.92968334       0.39240335 </v>
    <v>       0.00939767       0.33930136       0.41382363 </v>
    <v>       0.86048410       0.22129739       0.38806320 </v>
    <v>       0.63165048       0.47512681       0.39160120 </v>
    <v>       0.70324496       0.36325279       0.40914003 </v>
    <v>       0.72872187       0.72437282       0.39908084 </v>
    <v>       0.43055640       0.55257318       0.31717282 </v>
    <v>       0.38419387       0.73692937       0.41086690 </v>
    <v>       0.48249352       0.65122952       0.39272485 </v>
   </varray>
  </structure>
  <varray name="forces" >
   <v>       0.02522611      -0.01075018      -0.00080100 </v>
   <v>       0.02136388      -0.00535653       0.00461675 </v>
   <v>       0.01830403      -0.00508262       0.00033188 </v>
   <v>      -0.05002171      -0.01614565      -0.04351010 </v>
   <v>       0.00028576      -0.00041582      -0.00076097 </v>
   <v>       0.00180887       0.00188123       0.01506591 </v>
   <v>       0.02161882       0.02720990      -0.01515029 </v>
   <v>      -0.00662336       0.01513025      -0.00708998 </v>
   <v>       0.01262097       0.01663505       0.01171975 </v>
   <v>      -0.01619102      -0.02653192      -0.02294072 </v>
   <v>      -0.00807871      -0.00369362      -0.00483416 </v>
   <v>      -0.01089586      -0.01559502       0.01571976 </v>
   <v>      -0.00053568       0.01414343      -0.03758430 </v>
   <v>       0.00900952      -0.02218695      -0.00997162 </v>
   <v>      -0.00023979      -0.00239828       0.00862221 </v>
   <v>      -0.00623036      -0.00074884      -0.02795353 </v>
   <v>      -0.01755445       0.01583001      -0.00270327 </v>
   <v>      -0.01206717      -0.00035971       0.01399385 </v>
   <v>      -0.00557926       0.05386002      -0.04279800 </v>
   <v>      -0.00265901       0.00102023      -0.00379069 </v>
   <v>       0.00343651       0.00493142       0.01872061 </v>
   <v>       0.05213146      -0.03483351      -0.02665043 </v>
   <v>      -0.00514505       0.00265670       0.00133873 </v>
   <v>       0.00520983      -0.00186958       0.01070050 </v>
   <v>      -0.02175923      -0.00623514      -0.05453991 </v>
   <v>       0.01940072      -0.00026988      -0.00609180 </v>
   <v>       0.00327641      -0.00032708       0.00547843 </v>
   <v>       0.00435955      -0.01406741       0.02352909 </v>
   <v>       0.00393133      -0.00911984      -0.00158927 </v>
   <v>       0.01291241       0.01485274       0.03574434 </v>
   <v>       0.00427469       0.00234628       0.00222487 </v>
   <v>      -0.03499958       0.00461725      -0.02833451 </v>
   <v>      -0.02010856       0.00223411       0.01192626 </v>
   <v>      -0.01342934       0.01518971       0.04370358 </v>
   <v>       0.00132679       0.01811638      -0.00513411 </v>
   <v>      -0.00091300       0.01603145       0.01352998 </v>
   <v>       0.01271469      -0.00262668      -0.00296279 </v>
   <v>      -0.00879179      -0.03306100       0.04387119 </v>
   <v>       0.00416468      -0.00890866      -0.00420706 </v>
   <v>      -0.00766847       0.00752144      -0.01130557 </v>
   <v>      -0.00025821       0.00128311      -0.00387884 </v>
   <v>      -0.03015570       0.00931746       0.07434631 </v>
   <v>      -0.00687514      -0.00460813      -0.01466029 </v>
   <v>       0.01112175      -0.02169265       0.05703134 </v>
   <v>       0.00354397       0.00261243      -0.00999303 </v>
   <v>      -0.00425321      -0.00106916       0.00089818 </v>
   <v>      -0.00523667       0.01679416       0.01469858 </v>
   <v>       0.00113649      -0.00123444       0.01678406 </v>
   <v>      -0.00241233      -0.00654516       0.00730722 </v>
   <v>      -0.00375679      -0.00485773      -0.00758039 </v>
   <v>       0.01063894      -0.01227262      -0.00216072 </v>
   <v>      -0.00287675      -0.00248849      -0.00660243 </v>
   <v>      -0.00004085       0.00145944      -0.01111799 </v>
   <v>      -0.01039229       0.01645515      -0.00452820 </v>
   <v>       0.00311634      -0.00115296       0.00267855 </v>
   <v>       0.00411729      -0.00415921      -0.00374999 </v>
   <v>       0.00035314      -0.00268371      -0.00451026 </v>
   <v>       0.00149272       0.00148366      -0.00518462 </v>
   <v>       0.00433095       0.00240375       0.00328509 </v>
   <v>       0.00653421       0.00879472      -0.01207827 </v>
   <v>      -0.00116544      -0.00205443      -0.00140115 </v>
   <v>       0.01486775      -0.00220629       0.00047356 </v>
   <v>       0.01828418      -0.00720259      -0.01019031 </v>
  </varray>
  <varray name="stress" >
   <v>      -5.39868036       0.34704869       0.35436731 </v>
   <v>       0.34704880      -4.96733633       0.02462514 </v>
   <v>       0.35436733       0.02462512       0.32892179 </v>
  </varray>
  <energy>
   <i name="e_fr_energy">    -69.31776958 </i>
   <i name="e_wo_entrp">    -69.31776958 </i>
   <i name="e_0_energy">      0.00000000 </i>
  </energy>
  <time name="totalsc">  200.85  202.20</time>
  <eigenvalues>
   <array>
    <dimension dim="1">band</dimension>
    <dimension dim="2">kpoint</dimension>
    <dimension dim="3">spin</dimension>
    <field>eigene</field>
    <field>occ</field>
    <set>
     <set comment="spin 1">
      <set comment="kpoint 1">
       <r>  -23.5304    1.0000 </r>
       <r>  -23.3332    1.0000 </r>
       <r>  -23.2958    1.0000 </r>
       <r>  -23.2181    1.0000 </r>
       <r>  -23.0428    1.0000 </r>
       <r>  -21.3187    1.0000 </r>
       <r>  -11.5096    1.0000 </r>
       <r>  -11.4020    1.0000 </r>
       <r>  -11.3660    1.0000 </r>
       <r>  -11.0905    1.0000 </r>
       <r>  -10.9576    1.0000 </r>
       <r>   -8.7740    1.0000 </r>
       <r>   -8.5159    1.0000 </r>
       <r>   -8.4908    1.0000 </r>
       <r>   -8.3032    1.0000 </r>
       <r>   -7.6989    1.0000 </r>
       <r>   -7.5761    1.0000 </r>
       <r>   -7.5432    1.0000 </r>
       <r>   -7.1153    1.0000 </r>
       <r>   -6.5744    1.0000 </r>
       <r>   -6.3276    1.0000 </r>
       <r>   -6.2804    1.0000 </r>
       <r>   -6.0759    1.0000 </r>
       <r>   -5.8161    1.0000 </r>
       <r>   -5.6885    1.0000 </r>
       <r>   -5.5799    1.0000 </r>
       <r>   -5.4570    1.0000 </r>
       <r>   -5.4004    1.0000 </r>
       <r>   -5.3843    1.0000 </r>
       <r>   -5.3779    1.0000 </r>
       <r>   -5.3463    1.0000 </r>
       <r>   -5.3151    1.0000 </r>
       <r>   -5.2807    1.0000 </r>
       <r>   -4.9741    1.0000 </r>
       <r>   -4.8684    1.0000 </r>
       <r>   -4.8550    1.0000 </r>
       <r>   -4.8419    1.0000 </r>
       <r>   -4.8033    1.0000 </r>
       <r>   -4.7185    1.0000 </r>
       <r>   -4.7141    1.0000 </r>
       <r>   -4.4238    1.0000 </r>
       <r>   -3.9921    1.0000 </r>
       <r>   -3.9680    1.0000 </r>
       <r>   -3.9275    1.0000 </r>
       <r>   -3.8448    1.0000 </r>
       <r>   -3.8142    1.0000 </r>
       <r>   -3.3902    1.0000 </r>
       <r>   -3.1867    1.0000 </r>
       <r>   -2.8440    1.0000 </r>
       <r>   -2.7900    1.0000 </r>
       <r>   -2.7651    1.0000 </r>
       <r>   -2.6900    1.0000 </r>
       <r>   -2.6546    1.0000 </r>
       <r>   -1.9177    1.0000 </r>
       <r>   -1.7843    1.0000 </r>
       <r>   -1.4103    1.0000 </r>
       <r>   -1.3307    1.0000 </r>
       <r>   -1.2976    1.0000 </r>
       <r>   -1.2573    1.0000 </r>
       <r>   -1.2195    1.0000 </r>
       <r>   -1.2069    1.0000 </r>
       <r>   -1.1977    1.0000 </r>
       <r>   -1.1807    1.0000 </r>
       <r>   -1.1641    1.0000 </r>
       <r>   -1.1549    1.0000 </r>
       <r>   -1.1091    1.0000 </r>
       <r>   -0.9049    1.0000 </r>
       <r>   -0.8831    1.0000 </r>
       <r>   -0.7974    0.6046 </r>
       <r>   -0.6819    0.0000 </r>
       <r>   -0.6578    0.0000 </r>
       <r>   -0.5611    0.0000 </r>
       <r>   -0.4192    0.0000 </r>
       <r>   -0.2582    0.0000 </r>
       <r>   -0.1814    0.0000 </r>
       <r>   -0.0076    0.0000 </r>
       <r>    0.0812    0.0000 </r>
       <r>    0.0962    0.0000 </r>
       <r>    0.1275    0.0000 </r>
       <r>    0.1508    0.0000 </r>
       <r>    0.2869    0.0000 </r>
       <r>    0.3590    0.0000 </r>
       <r>    0.4404    0.0000 </r>
       <r>    0.8181    0.0000 </r>
       <r>    0.8622    0.0000 </r>
       <r>    0.8936    0.0000 </r>
       <r>    0.8984    0.0000 </r>
       <r>    0.9215    0.0000 </r>
       <r>    0.9376    0.0000 </r>
       <r>    0.9513    0.0000 </r>
       <r>    0.9844    0.0000 </r>
       <r>    1.0606    0.0000 </r>
       <r>    1.1699    0.0000 </r>
       <r>    1.2049    0.0000 </r>
       <r>    1.2202    0.0000 </r>
       <r>    1.4358    0.0000 </r>
       <r>    1.4452    0.0000 </r>
       <r>    1.4482    0.0000 </r>
       <r>    1.4716    0.0000 </r>
       <r>    1.5322    0.0000 </r>
       <r>    1.5925    0.0000 </r>
       <r>    1.6764    0.0000 </r>
      </set>
      <set comment="kpoint 2">
       <r>  -23.5286    1.0000 </r>
       <r>  -23.3432    1.0000 </r>
       <r>  -23.2888    1.0000 </r>
       <r>  -23.2166    1.0000 </r>
       <r>  -23.0433    1.0000 </r>
       <r>  -21.3188    1.0000 </r>
       <r>  -11.5059    1.0000 </r>
       <r>  -11.4063    1.0000 </r>
       <r>  -11.3658    1.0000 </r>
       <r>  -11.0874    1.0000 </r>
       <r>  -10.9601    1.0000 </r>
       <r>   -8.7668    1.0000 </r>
       <r>   -8.5234    1.0000 </r>
       <r>   -8.5026    1.0000 </r>
       <r>   -8.2820    1.0000 </r>
       <r>   -7.6917    1.0000 </r>
       <r>   -7.5627    1.0000 </r>
       <r>   -7.3395    1.0000 </r>
       <r>   -6.9861    1.0000 </r>
       <r>   -6.6313    1.0000 </r>
       <r>   -6.4531    1.0000 </r>
       <r>   -6.3323    1.0000 </r>
       <r>   -6.2579    1.0000 </r>
       <r>   -6.0982    1.0000 </r>
       <r>   -5.9456    1.0000 </r>
       <r>   -5.8412    1.0000 </r>
       <r>   -5.8354    1.0000 </r>
       <r>   -5.6753    1.0000 </r>
       <r>   -5.6097    1.0000 </r>
       <r>   -5.5516    1.0000 </r>
       <r>   -5.3941    1.0000 </r>
       <r>   -5.2612    1.0000 </r>
       <r>   -5.1823    1.0000 </r>
       <r>   -4.9689    1.0000 </r>
       <r>   -4.8631    1.0000 </r>
       <r>   -4.5753    1.0000 </r>
       <r>   -4.4347    1.0000 </r>
       <r>   -4.4100    1.0000 </r>
       <r>   -4.3478    1.0000 </r>
       <r>   -4.1459    1.0000 </r>
       <r>   -3.8869    1.0000 </r>
       <r>   -3.8362    1.0000 </r>
       <r>   -3.7387    1.0000 </r>
       <r>   -3.5886    1.0000 </r>
       <r>   -3.2180    1.0000 </r>
       <r>   -3.1902    1.0000 </r>
       <r>   -3.1222    1.0000 </r>
       <r>   -3.0672    1.0000 </r>
       <r>   -3.0301    1.0000 </r>
       <r>   -3.0054    1.0000 </r>
       <r>   -2.9543    1.0000 </r>
       <r>   -2.6432    1.0000 </r>
       <r>   -2.4815    1.0000 </r>
       <r>   -2.4153    1.0000 </r>
       <r>   -2.3484    1.0000 </r>
       <r>   -2.1211    1.0000 </r>
       <r>   -1.8645    1.0000 </r>
       <r>   -1.8170    1.0000 </r>
       <r>   -1.7497    1.0000 </r>
       <r>   -1.6797    1.0000 </r>
       <r>   -1.6503    1.0000 </r>
       <r>   -1.6096    1.0000 </r>
       <r>   -1.5678    1.0000 </r>
       <r>   -1.4610    1.0000 </r>
       <r>   -1.0907    1.0000 </r>
       <r>   -0.9938    1.0000 </r>
       <r>   -0.9564    1.0000 </r>
       <r>   -0.8990    1.0000 </r>
       <r>   -0.7725    0.4057 </r>
       <r>   -0.7607    0.1471 </r>
       <r>   -0.6780   -0.0250 </r>
       <r>   -0.6087    0.0000 </r>
       <r>   -0.3583    0.0000 </r>
       <r>   -0.2253    0.0000 </r>
       <r>   -0.1609    0.0000 </r>
       <r>   -0.0998    0.0000 </r>
       <r>   -0.0740    0.0000 </r>
       <r>    0.0559    0.0000 </r>
       <r>    0.1405    0.0000 </r>
       <r>    0.1998    0.0000 </r>
       <r>    0.2560    0.0000 </r>
       <r>    0.3517    0.0000 </r>
       <r>    0.3987    0.0000 </r>
       <r>    0.4581    0.0000 </r>
       <r>    0.5041    0.0000 </r>
       <r>    0.6440    0.0000 </r>
       <r>    0.7544    0.0000 </r>
       <r>    0.8136    0.0000 </r>
       <r>    0.9058    0.0000 </r>
       <r>    1.0305    0.0000 </r>
       <r>    1.0425    0.0000 </r>
       <r>    1.1068    0.0000 </r>
       <r>    1.1610    0.0000 </r>
       <r>    1.2188    0.0000 </r>
       <r>    1.2562    0.0000 </r>
       <r>    1.3079    0.0000 </r>
       <r>    1.4113    0.0000 </r>
       <r>    1.4927    0.0000 </r>
       <r>    1.5397    0.0000 </r>
       <r>    1.6039    0.0000 </r>
       <r>    1.8284    0.0000 </r>
       <r>    1.8649    0.0000 </r>
      </set>
      <set comment="kpoint 3">
       <r>  -23.5296    1.0000 </r>
       <r>  -23.3345    1.0000 </r>
       <r>  -23.2960    1.0000 </r>
       <r>  -23.2184    1.0000 </r>
       <r>  -23.0419    1.0000 </r>
       <r>  -21.3188    1.0000 </r>
       <r>  -11.5061    1.0000 </r>
       <r>  -11.4054    1.0000 </r>
       <r>  -11.3651    1.0000 </r>
       <r>  -11.0916    1.0000 </r>
       <r>  -10.9572    1.0000 </r>
       <r>   -8.7698    1.0000 </r>
       <r>   -8.5191    1.0000 </r>
       <r>   -8.5092    1.0000 </r>
       <r>   -8.2735    1.0000 </r>
       <r>   -7.7003    1.0000 </r>
       <r>   -7.5563    1.0000 </r>
       <r>   -7.3382    1.0000 </r>
       <r>   -6.9848    1.0000 </r>
       <r>   -6.6423    1.0000 </r>
       <r>   -6.4650    1.0000 </r>
       <r>   -6.3200    1.0000 </r>
       <r>   -6.2553    1.0000 </r>
       <r>   -6.1054    1.0000 </r>
       <r>   -5.9250    1.0000 </r>
       <r>   -5.8524    1.0000 </r>
       <r>   -5.8298    1.0000 </r>
       <r>   -5.6577    1.0000 </r>
       <r>   -5.5963    1.0000 </r>
       <r>   -5.5677    1.0000 </r>
       <r>   -5.4358    1.0000 </r>
       <r>   -5.2529    1.0000 </r>
       <r>   -5.1568    1.0000 </r>
       <r>   -4.9783    1.0000 </r>
       <r>   -4.8656    1.0000 </r>
       <r>   -4.5718    1.0000 </r>
       <r>   -4.4426    1.0000 </r>
       <r>   -4.4113    1.0000 </r>
       <r>   -4.3210    1.0000 </r>
       <r>   -4.1630    1.0000 </r>
       <r>   -3.9004    1.0000 </r>
       <r>   -3.8327    1.0000 </r>
       <r>   -3.7300    1.0000 </r>
       <r>   -3.5849    1.0000 </r>
       <r>   -3.2181    1.0000 </r>
       <r>   -3.1919    1.0000 </r>
       <r>   -3.1258    1.0000 </r>
       <r>   -3.0779    1.0000 </r>
       <r>   -3.0336    1.0000 </r>
       <r>   -3.0072    1.0000 </r>
       <r>   -2.9350    1.0000 </r>
       <r>   -2.6596    1.0000 </r>
       <r>   -2.4801    1.0000 </r>
       <r>   -2.4118    1.0000 </r>
       <r>   -2.3462    1.0000 </r>
       <r>   -2.1166    1.0000 </r>
       <r>   -1.8561    1.0000 </r>
       <r>   -1.8260    1.0000 </r>
       <r>   -1.7593    1.0000 </r>
       <r>   -1.6821    1.0000 </r>
       <r>   -1.6363    1.0000 </r>
       <r>   -1.6302    1.0000 </r>
       <r>   -1.5314    1.0000 </r>
       <r>   -1.4642    1.0000 </r>
       <r>   -1.0740    1.0000 </r>
       <r>   -0.9982    1.0000 </r>
       <r>   -0.9551    1.0000 </r>
       <r>   -0.9147    1.0000 </r>
       <r>   -0.7759    0.4368 </r>
       <r>   -0.7587    0.1349 </r>
       <r>   -0.7035   -0.0227 </r>
       <r>   -0.6039    0.0000 </r>
       <r>   -0.3876    0.0000 </r>
       <r>   -0.2053    0.0000 </r>
       <r>   -0.1545    0.0000 </r>
       <r>   -0.1177    0.0000 </r>
       <r>   -0.0632    0.0000 </r>
       <r>    0.0576    0.0000 </r>
       <r>    0.1420    0.0000 </r>
       <r>    0.2070    0.0000 </r>
       <r>    0.2787    0.0000 </r>
       <r>    0.3508    0.0000 </r>
       <r>    0.3954    0.0000 </r>
       <r>    0.4615    0.0000 </r>
       <r>    0.4919    0.0000 </r>
       <r>    0.6384    0.0000 </r>
       <r>    0.7586    0.0000 </r>
       <r>    0.8375    0.0000 </r>
       <r>    0.8819    0.0000 </r>
       <r>    1.0127    0.0000 </r>
       <r>    1.0595    0.0000 </r>
       <r>    1.1298    0.0000 </r>
       <r>    1.1496    0.0000 </r>
       <r>    1.2190    0.0000 </r>
       <r>    1.2608    0.0000 </r>
       <r>    1.3035    0.0000 </r>
       <r>    1.4140    0.0000 </r>
       <r>    1.4998    0.0000 </r>
       <r>    1.5338    0.0000 </r>
       <r>    1.5943    0.0000 </r>
       <r>    1.7786    0.0000 </r>
       <r>    1.9526    0.0000 </r>
      </set>
      <set comment="kpoint 4">
       <r>  -23.5282    1.0000 </r>
       <r>  -23.3410    1.0000 </r>
       <r>  -23.2940    1.0000 </r>
       <r>  -23.2141    1.0000 </r>
       <r>  -23.0429    1.0000 </r>
       <r>  -21.3188    1.0000 </r>
       <r>  -11.5041    1.0000 </r>
       <r>  -11.4041    1.0000 </r>
       <r>  -11.3692    1.0000 </r>
       <r>  -11.0882    1.0000 </r>
       <r>  -10.9597    1.0000 </r>
       <r>   -8.7724    1.0000 </r>
       <r>   -8.5269    1.0000 </r>
       <r>   -8.4985    1.0000 </r>
       <r>   -8.2662    1.0000 </r>
       <r>   -7.6949    1.0000 </r>
       <r>   -7.5652    1.0000 </r>
       <r>   -7.0749    1.0000 </r>
       <r>   -6.8308    1.0000 </r>
       <r>   -6.8162    1.0000 </r>
       <r>   -6.6657    1.0000 </r>
       <r>   -6.3860    1.0000 </r>
       <r>   -6.3725    1.0000 </r>
       <r>   -6.1923    1.0000 </r>
       <r>   -6.1485    1.0000 </r>
       <r>   -6.0901    1.0000 </r>
       <r>   -5.8537    1.0000 </r>
       <r>   -5.6541    1.0000 </r>
       <r>   -5.5824    1.0000 </r>
       <r>   -5.4771    1.0000 </r>
       <r>   -5.3432    1.0000 </r>
       <r>   -5.2242    1.0000 </r>
       <r>   -4.9726    1.0000 </r>
       <r>   -4.8701    1.0000 </r>
       <r>   -4.6640    1.0000 </r>
       <r>   -4.6564    1.0000 </r>
       <r>   -4.5920    1.0000 </r>
       <r>   -4.1825    1.0000 </r>
       <r>   -4.1533    1.0000 </r>
       <r>   -4.1136    1.0000 </r>
       <r>   -4.0761    1.0000 </r>
       <r>   -4.0486    1.0000 </r>
       <r>   -3.6138    1.0000 </r>
       <r>   -3.2326    1.0000 </r>
       <r>   -3.2082    1.0000 </r>
       <r>   -2.9289    1.0000 </r>
       <r>   -2.6637    1.0000 </r>
       <r>   -2.6290    1.0000 </r>
       <r>   -2.5884    1.0000 </r>
       <r>   -2.5774    1.0000 </r>
       <r>   -2.5726    1.0000 </r>
       <r>   -2.5509    1.0000 </r>
       <r>   -2.5457    1.0000 </r>
       <r>   -2.5324    1.0000 </r>
       <r>   -2.3823    1.0000 </r>
       <r>   -2.1237    1.0000 </r>
       <r>   -2.1152    1.0000 </r>
       <r>   -2.0956    1.0000 </r>
       <r>   -2.0609    1.0000 </r>
       <r>   -2.0405    1.0000 </r>
       <r>   -2.0171    1.0000 </r>
       <r>   -1.9688    1.0000 </r>
       <r>   -1.9500    1.0000 </r>
       <r>   -1.6443    1.0000 </r>
       <r>   -1.4564    1.0000 </r>
       <r>   -1.4356    1.0000 </r>
       <r>   -1.2380    1.0000 </r>
       <r>   -1.2066    1.0000 </r>
       <r>   -1.0656    1.4292 </r>
       <r>   -0.8642    1.1196 </r>
       <r>   -0.8040    0.1295 </r>
       <r>   -0.7810    0.0000 </r>
       <r>   -0.6980    0.0000 </r>
       <r>   -0.5993    0.0000 </r>
       <r>   -0.5592    0.0000 </r>
       <r>   -0.1665    0.0000 </r>
       <r>   -0.0147    0.0000 </r>
       <r>   -0.0003    0.0000 </r>
       <r>    0.0412    0.0000 </r>
       <r>    0.0997    0.0000 </r>
       <r>    0.1827    0.0000 </r>
       <r>    0.5098    0.0000 </r>
       <r>    0.5645    0.0000 </r>
       <r>    0.7222    0.0000 </r>
       <r>    0.8437    0.0000 </r>
       <r>    0.8731    0.0000 </r>
       <r>    0.9322    0.0000 </r>
       <r>    1.2391    0.0000 </r>
       <r>    1.3849    0.0000 </r>
       <r>    1.4343    0.0000 </r>
       <r>    1.4628    0.0000 </r>
       <r>    1.4769    0.0000 </r>
       <r>    1.5213    0.0000 </r>
       <r>    1.5313    0.0000 </r>
       <r>    1.5478    0.0000 </r>
       <r>    1.5615    0.0000 </r>
       <r>    1.5843    0.0000 </r>
       <r>    1.6141    0.0000 </r>
       <r>    1.6620    0.0000 </r>
       <r>    1.7131    0.0000 </r>
       <r>    1.9240    0.0000 </r>
       <r>    1.9883    0.0000 </r>
      </set>
      <set comment="kpoint 5">
       <r>  -23.5284    1.0000 </r>
       <r>  -23.3429    1.0000 </r>
       <r>  -23.2904    1.0000 </r>
       <r>  -23.2155    1.0000 </r>
       <r>  -23.0432    1.0000 </r>
       <r>  -21.3188    1.0000 </r>
[...]
       <r>   -21.6929     0.0000    10.0000 </r>
       <r>   -21.5945     0.0000    10.0000 </r>
       <r>   -21.4961     0.0000    10.0000 </r>
       <r>   -21.3977     0.0000    10.0000 </r>
       <r>   -21.2993     0.0000    12.0000 </r>
       <r>   -21.2009     0.0000    12.0000 </r>
       <r>   -21.1025     0.0000    12.0000 </r>
       <r>   -21.0041     0.0000    12.0000 </r>
       <r>   -20.9057     0.0000    12.0000 </r>
       <r>   -20.8073     0.0000    12.0000 </r>
       <r>   -20.7089     0.0000    12.0000 </r>
       <r>   -20.6105     0.0000    12.0000 </r>
       <r>   -20.5121     0.0000    12.0000 </r>
       <r>   -20.4137     0.0000    12.0000 </r>
       <r>   -20.3153     0.0000    12.0000 </r>
       <r>   -20.2169     0.0000    12.0000 </r>
       <r>   -20.1185     0.0000    12.0000 </r>
       <r>   -20.0201     0.0000    12.0000 </r>
       <r>   -19.9217     0.0000    12.0000 </r>
       <r>   -19.8233     0.0000    12.0000 </r>
       <r>   -19.7250     0.0000    12.0000 </r>
       <r>   -19.6266     0.0000    12.0000 </r>
       <r>   -19.5282     0.0000    12.0000 </r>
       <r>   -19.4298     0.0000    12.0000 </r>
       <r>   -19.3314     0.0000    12.0000 </r>
       <r>   -19.2330     0.0000    12.0000 </r>
       <r>   -19.1346     0.0000    12.0000 </r>
       <r>   -19.0362     0.0000    12.0000 </r>
       <r>   -18.9378     0.0000    12.0000 </r>
       <r>   -18.8394     0.0000    12.0000 </r>
       <r>   -18.7410     0.0000    12.0000 </r>
       <r>   -18.6426     0.0000    12.0000 </r>
       <r>   -18.5442     0.0000    12.0000 </r>
       <r>   -18.4458     0.0000    12.0000 </r>
       <r>   -18.3474     0.0000    12.0000 </r>
       <r>   -18.2490     0.0000    12.0000 </r>
       <r>   -18.1506     0.0000    12.0000 </r>
       <r>   -18.0522     0.0000    12.0000 </r>
       <r>   -17.9538     0.0000    12.0000 </r>
       <r>   -17.8554     0.0000    12.0000 </r>
       <r>   -17.7570     0.0000    12.0000 </r>
       <r>   -17.6586     0.0000    12.0000 </r>
       <r>   -17.5602     0.0000    12.0000 </r>
       <r>   -17.4618     0.0000    12.0000 </r>
       <r>   -17.3634     0.0000    12.0000 </r>
       <r>   -17.2650     0.0000    12.0000 </r>
       <r>   -17.1666     0.0000    12.0000 </r>
       <r>   -17.0682     0.0000    12.0000 </r>
       <r>   -16.9698     0.0000    12.0000 </r>
       <r>   -16.8714     0.0000    12.0000 </r>
       <r>   -16.7730     0.0000    12.0000 </r>
       <r>   -16.6746     0.0000    12.0000 </r>
       <r>   -16.5762     0.0000    12.0000 </r>
       <r>   -16.4778     0.0000    12.0000 </r>
       <r>   -16.3794     0.0000    12.0000 </r>
       <r>   -16.2810     0.0000    12.0000 </r>
       <r>   -16.1826     0.0000    12.0000 </r>
       <r>   -16.0843     0.0000    12.0000 </r>
       <r>   -15.9859     0.0000    12.0000 </r>
       <r>   -15.8875     0.0000    12.0000 </r>
       <r>   -15.7891     0.0000    12.0000 </r>
       <r>   -15.6907     0.0000    12.0000 </r>
       <r>   -15.5923     0.0000    12.0000 </r>
       <r>   -15.4939     0.0000    12.0000 </r>
       <r>   -15.3955     0.0000    12.0000 </r>
       <r>   -15.2971     0.0000    12.0000 </r>
       <r>   -15.1987     0.0000    12.0000 </r>
       <r>   -15.1003     0.0000    12.0000 </r>
       <r>   -15.0019     0.0000    12.0000 </r>
       <r>   -14.9035     0.0000    12.0000 </r>
       <r>   -14.8051     0.0000    12.0000 </r>
       <r>   -14.7067     0.0000    12.0000 </r>
       <r>   -14.6083     0.0000    12.0000 </r>
       <r>   -14.5099     0.0000    12.0000 </r>
       <r>   -14.4115     0.0000    12.0000 </r>
       <r>   -14.3131     0.0000    12.0000 </r>
       <r>   -14.2147     0.0000    12.0000 </r>
       <r>   -14.1163     0.0000    12.0000 </r>
       <r>   -14.0179     0.0000    12.0000 </r>
       <r>   -13.9195     0.0000    12.0000 </r>
       <r>   -13.8211     0.0000    12.0000 </r>
       <r>   -13.7227     0.0000    12.0000 </r>
       <r>   -13.6243     0.0000    12.0000 </r>
       <r>   -13.5259     0.0000    12.0000 </r>
       <r>   -13.4275     0.0000    12.0000 </r>
       <r>   -13.3291     0.0000    12.0000 </r>
       <r>   -13.2307     0.0000    12.0000 </r>
       <r>   -13.1323     0.0000    12.0000 </r>
       <r>   -13.0339     0.0000    12.0000 </r>
       <r>   -12.9355     0.0000    12.0000 </r>
       <r>   -12.8371     0.0000    12.0000 </r>
       <r>   -12.7387     0.0000    12.0000 </r>
       <r>   -12.6403     0.0000    12.0000 </r>
       <r>   -12.5419     0.0000    12.0000 </r>
       <r>   -12.4435     0.0000    12.0000 </r>
       <r>   -12.3452     0.0000    12.0000 </r>
       <r>   -12.2468     0.0000    12.0000 </r>
       <r>   -12.1484     0.0000    12.0000 </r>
       <r>   -12.0500     0.0000    12.0000 </r>
       <r>   -11.9516     0.0000    12.0000 </r>
       <r>   -11.8532     0.0000    12.0000 </r>
       <r>   -11.7548     0.0000    12.0000 </r>
       <r>   -11.6564     0.0000    12.0000 </r>
       <r>   -11.5580     0.0000    12.0000 </r>
       <r>   -11.4596     0.0000    14.0000 </r>
       <r>   -11.3612     0.0000    18.0000 </r>
       <r>   -11.2628     0.0000    18.0000 </r>
       <r>   -11.1644     0.0000    18.0000 </r>
       <r>   -11.0660     0.0000    20.0000 </r>
       <r>   -10.9676     0.0000    20.0000 </r>
       <r>   -10.8692     0.0000    22.0000 </r>
       <r>   -10.7708     0.0000    22.0000 </r>
       <r>   -10.6724     0.0000    22.0000 </r>
       <r>   -10.5740     0.0000    22.0000 </r>
       <r>   -10.4756     0.0000    22.0000 </r>
       <r>   -10.3772     0.0000    22.0000 </r>
       <r>   -10.2788     0.0000    22.0000 </r>
       <r>   -10.1804     0.0000    22.0000 </r>
       <r>   -10.0820     0.0000    22.0000 </r>
       <r>    -9.9836     0.0000    22.0000 </r>
       <r>    -9.8852     0.0000    22.0000 </r>
       <r>    -9.7868     0.0000    22.0000 </r>
       <r>    -9.6884     0.0000    22.0000 </r>
       <r>    -9.5900     0.0000    22.0000 </r>
       <r>    -9.4916     0.0000    22.0000 </r>
       <r>    -9.3932     0.0000    22.0000 </r>
       <r>    -9.2948     0.0000    22.0000 </r>
       <r>    -9.1964     0.0000    22.0000 </r>
       <r>    -9.0980     0.0000    22.0000 </r>
       <r>    -8.9996     0.0000    22.0000 </r>
       <r>    -8.9012     0.0000    22.0000 </r>
       <r>    -8.8028     0.0000    22.0000 </r>
       <r>    -8.7044     0.0000    24.0000 </r>
       <r>    -8.6061     0.0000    24.0000 </r>
       <r>    -8.5077    54.4123    26.0743 </r>
       <r>    -8.4093     0.0000    28.0000 </r>
       <r>    -8.3109     0.0000    28.0000 </r>
       <r>    -8.2125     0.0000    30.0000 </r>
       <r>    -8.1141     0.0000    30.0000 </r>
       <r>    -8.0157     0.0000    30.0000 </r>
       <r>    -7.9173     0.0000    30.0000 </r>
       <r>    -7.8189     0.0000    30.0000 </r>
       <r>    -7.7205     0.0000    30.0000 </r>
       <r>    -7.6221     0.0000    32.0000 </r>
       <r>    -7.5237     0.6229    34.0061 </r>
       <r>    -7.4253     3.7688    34.2221 </r>
       <r>    -7.3269     9.6365    34.7857 </r>
       <r>    -7.2285     5.8742    35.5488 </r>
       <r>    -7.1301     2.1119    35.9417 </r>
       <r>    -7.0317     6.5989    36.2757 </r>
       <r>    -6.9333    11.4475    37.4132 </r>
       <r>    -6.8349     0.4610    37.9990 </r>
       <r>    -6.7365     6.6486    38.2649 </r>
       <r>    -6.6381    17.0195    39.3467 </r>
       <r>    -6.5397     7.6390    40.4813 </r>
       <r>    -6.4413     9.2746    41.4729 </r>
       <r>    -6.3429    40.0699    42.7857 </r>
       <r>    -6.2445     6.7483    45.4311 </r>
       <r>    -6.1461    18.1859    46.2538 </r>
       <r>    -6.0477    11.4796    47.8940 </r>
       <r>    -5.9493    20.0660    49.4460 </r>
       <r>    -5.8509    27.1602    51.0281 </r>
       <r>    -5.7525     7.3908    53.2687 </r>
       <r>    -5.6541    22.6922    55.1422 </r>
       <r>    -5.5557    23.9935    57.4086 </r>
       <r>    -5.4573    13.6488    59.8307 </r>
       <r>    -5.3589     9.8464    61.9269 </r>
       <r>    -5.2605    37.6350    62.6360 </r>
       <r>    -5.1621    10.2130    64.7138 </r>
       <r>    -5.0637     6.6400    65.6975 </r>
       <r>    -4.9653    22.8534    66.9113 </r>
       <r>    -4.8670    71.7470    68.0535 </r>
       <r>    -4.7686     9.4082    69.7116 </r>
       <r>    -4.6702     6.5322    70.4788 </r>
       <r>    -4.5718    21.2250    72.4402 </r>
       <r>    -4.4734    22.5389    74.2309 </r>
       <r>    -4.3750    16.8548    75.9092 </r>
       <r>    -4.2766    16.0247    77.6837 </r>
       <r>    -4.1782     5.1501    78.7152 </r>
       <r>    -4.0798     1.6288    80.2802 </r>
       <r>    -3.9814    14.0933    80.9546 </r>
       <r>    -3.8830    17.8623    83.2034 </r>
       <r>    -3.7846     6.3219    84.5268 </r>
       <r>    -3.6862    17.4524    85.8999 </r>
       <r>    -3.5878     6.6968    86.8497 </r>
       <r>    -3.4894     7.8964    87.6790 </r>
       <r>    -3.3910     6.4306    88.3839 </r>
       <r>    -3.2926     6.7768    89.0329 </r>
       <r>    -3.1942     5.7691    91.0168 </r>
       <r>    -3.0958    20.5524    92.6667 </r>
       <r>    -2.9974    35.2613    94.8037 </r>
       <r>    -2.8990    31.3320    98.2483 </r>
       <r>    -2.8006    15.8470   100.5241 </r>
       <r>    -2.7022     7.1620   101.6033 </r>
       <r>    -2.6038    21.5411   103.5744 </r>
       <r>    -2.5054    38.4798   105.3755 </r>
       <r>    -2.4070     2.6423   107.3535 </r>
       <r>    -2.3086     4.3539   108.9993 </r>
       <r>    -2.2102     3.4017   109.3809 </r>
       <r>    -2.1118    42.8243   110.7939 </r>
       <r>    -2.0134    12.1661   111.7464 </r>
       <r>    -1.9150    27.0591   113.6278 </r>
       <r>    -1.8166    29.6348   116.7017 </r>
       <r>    -1.7182    30.0247   119.6788 </r>
       <r>    -1.6198    22.7192   122.3735 </r>
       <r>    -1.5214    22.4792   124.6084 </r>
       <r>    -1.4230    13.5173   126.6027 </r>
       <r>    -1.3246    10.7666   127.7947 </r>
       <r>    -1.2262     9.4107   128.7594 </r>
       <r>    -1.1279    23.1561   130.0567 </r>
       <r>    -1.0295    26.9083   132.6594 </r>
       <r>    -0.9311    24.3875   135.2091 </r>
       <r>    -0.8327    14.2609   136.9606 </r>
       <r>    -0.7343    31.3734   140.1906 </r>
       <r>    -0.6359    15.2675   143.0459 </r>
       <r>    -0.5375     5.5535   144.3551 </r>
       <r>    -0.4391    11.7204   145.2049 </r>
       <r>    -0.3407     9.2760   147.1230 </r>
       <r>    -0.2423    21.0332   148.4863 </r>
       <r>    -0.1439    18.7645   150.2123 </r>
       <r>    -0.0455    41.6421   152.9778 </r>
       <r>     0.0529    39.1422   154.8912 </r>
       <r>     0.1513    14.6530   158.3704 </r>
       <r>     0.2497    22.9846   160.7704 </r>
       <r>     0.3481     0.0000   162.0000 </r>
       <r>     0.4465    18.3045   165.1176 </r>
       <r>     0.5449    21.9117   167.4072 </r>
       <r>     0.6433    17.7217   169.0161 </r>
       <r>     0.7417    14.7363   171.0613 </r>
       <r>     0.8401    31.9640   173.8020 </r>
       <r>     0.9385     9.7678   176.1546 </r>
       <r>     1.0369    28.8788   178.1585 </r>
       <r>     1.1353    21.0369   180.8644 </r>
       <r>     1.2337    39.8062   184.6104 </r>
       <r>     1.3321    40.0710   188.4753 </r>
       <r>     1.4305    62.0026   191.8052 </r>
       <r>     1.5289    39.0281   195.7237 </r>
       <r>     1.6273    27.5815   199.0303 </r>
       <r>     1.7257     4.8834   200.2813 </r>
       <r>     1.8241    18.2447   201.1657 </r>
       <r>     1.9225     8.8723   202.8418 </r>
       <r>     2.0209     0.0000   204.0000 </r>
       <r>     2.1193     0.0000   204.0000 </r>
       <r>     2.2177     0.0000   204.0000 </r>
       <r>     2.3161     0.0000   204.0000 </r>
       <r>     2.4145     0.0000   204.0000 </r>
       <r>     2.5129     0.0000   204.0000 </r>
       <r>     2.6112     0.0000   204.0000 </r>
       <r>     2.7096     0.0000   204.0000 </r>
       <r>     2.8080     0.0000   204.0000 </r>
       <r>     2.9064     0.0000   204.0000 </r>
       <r>     3.0048     0.0000   204.0000 </r>
       <r>     3.1032     0.0000   204.0000 </r>
       <r>     3.2016     0.0000   204.0000 </r>
       <r>     3.3000     0.0000   204.0000 </r>
       <r>     3.3984     0.0000   204.0000 </r>
       <r>     3.4968     0.0000   204.0000 </r>
       <r>     3.5952     0.0000   204.0000 </r>
       <r>     3.6936     0.0000   204.0000 </r>
       <r>     3.7920     0.0000   204.0000 </r>
       <r>     3.8904     0.0000   204.0000 </r>
       <r>     3.9888     0.0000   204.0000 </r>
      </set>
     </set>
    </array>
   </total>
  </dos>
 </calculation>
 <structure name="finalpos" >
  <crystal>
   <varray name="basis" >
    <v>       9.55575275       0.00000000       0.00000000 </v>
    <v>      -4.77787638       8.27552464       0.00000000 </v>
    <v>       0.00000000       0.00000000      32.62509537 </v>
   </varray>
   <i name="volume">   2579.95558872 </i>
   <varray name="rec_basis" >
    <v>       0.10464900       0.06041913       0.00000000 </v>
    <v>       0.00000000       0.12083826       0.00000000 </v>
    <v>       0.00000000       0.00000000       0.03065125 </v>
   </varray>
  </crystal>
  <varray name="positions" >
   <v>       0.00000000       0.00000000       0.00000000 </v>
   <v>       0.99743091       0.99913719       0.15854981 </v>
   <v>       0.99774045       0.00401705       0.32958637 </v>
   <v>       0.00000001       0.33333336       0.00000000 </v>
   <v>       0.99874958       0.33451420       0.15732467 </v>
   <v>       0.98838392       0.33299554       0.31147397 </v>
   <v>       0.00000002       0.66666672       0.00000000 </v>
   <v>       0.99721553       0.66700290       0.15813416 </v>
   <v>       0.00168269       0.67236819       0.31500802 </v>
   <v>       0.33333334       0.00000000       0.00000000 </v>
   <v>       0.33077984       0.99949202       0.15769135 </v>
   <v>       0.32608188       0.99677778       0.31160937 </v>
   <v>       0.33333335       0.33333336       0.00000000 </v>
   <v>       0.33125344       0.33228313       0.15706061 </v>
   <v>       0.31623285       0.32056765       0.31119214 </v>
   <v>       0.33333336       0.66666672       0.00000000 </v>
   <v>       0.33095960       0.66678256       0.15827268 </v>
   <v>       0.31601228       0.66774520       0.33078020 </v>
   <v>       0.66666668       0.00000000       0.00000000 </v>
   <v>       0.66475753       0.99855512       0.15775143 </v>
   <v>       0.66399078       0.00868025       0.31375995 </v>
   <v>       0.66666668       0.33333336       0.00000000 </v>
   <v>       0.66478960       0.33529507       0.15867491 </v>
   <v>       0.65886269       0.32322598       0.32709706 </v>
   <v>       0.66666670       0.66666672       0.00000000 </v>
   <v>       0.66648689       0.66691700       0.15892082 </v>
   <v>       0.66645781       0.67370651       0.32287925 </v>
   <v>       0.11111113       0.22222222       0.07982145 </v>
   <v>       0.10481404       0.22081009       0.23535376 </v>
   <v>       0.11111114       0.55555561       0.07982145 </v>
   <v>       0.11153087       0.55871488       0.23664425 </v>
   <v>       0.11111116       0.88888894       0.07982145 </v>
   <v>       0.10569560       0.88962357       0.23603401 </v>
   <v>       0.44444450       0.22222222       0.07982145 </v>
   <v>       0.44371269       0.22425585       0.23623825 </v>
   <v>       0.44444450       0.55555561       0.07982145 </v>
   <v>       0.44207581       0.55602292       0.23546317 </v>
   <v>       0.44444451       0.88888894       0.07982145 </v>
   <v>       0.44078340       0.88462079       0.23657554 </v>
   <v>       0.77777779       0.22222222       0.07982145 </v>
   <v>       0.77195064       0.22193945       0.23470263 </v>
   <v>       0.77777781       0.55555561       0.07982145 </v>
   <v>       0.76958556       0.55149644       0.24108476 </v>
   <v>       0.77777784       0.88888894       0.07982145 </v>
   <v>       0.77565678       0.88702446       0.24011716 </v>
   <v>       0.98708744       0.99813234       0.39416794 </v>
   <v>       0.26353542       0.99366246       0.41721661 </v>
   <v>       0.90937106       0.23487682       0.41574400 </v>
   <v>       0.62680847       0.36400313       0.38934946 </v>
   <v>       0.63671534       0.63923723       0.38418541 </v>
   <v>       0.37630392       0.65637814       0.39124315 </v>
   <v>       0.96614185       0.08065245       0.40686430 </v>
   <v>       0.08453738       0.00482257       0.40734355 </v>
   <v>       0.36090918       0.09801129       0.41194365 </v>
   <v>       0.25338304       0.92968334       0.39240335 </v>
   <v>       0.00939767       0.33930136       0.41382363 </v>
   <v>       0.86048410       0.22129739       0.38806320 </v>
   <v>       0.63165048       0.47512681       0.39160120 </v>
   <v>       0.70324496       0.36325279       0.40914003 </v>
   <v>       0.72872187       0.72437282       0.39908084 </v>
   <v>       0.43055640       0.55257318       0.31717282 </v>
   <v>       0.38419387       0.73692937       0.41086690 </v>
   <v>       0.48249352       0.65122952       0.39272485 </v>
  </varray>
  <varray name="selective"  type="logical" >
   <v type="logical" >  F  F  F </v>
   <v type="logical" >  T  T  T </v>
   <v type="logical" >  T  T  T </v>
   <v type="logical" >  F  F  F </v>
   <v type="logical" >  T  T  T </v>
   <v type="logical" >  T  T  T </v>
   <v type="logical" >  F  F  F </v>
   <v type="logical" >  T  T  T </v>
   <v type="logical" >  T  T  T </v>
   <v type="logical" >  F  F  F </v>
   <v type="logical" >  T  T  T </v>
   <v type="logical" >  T  T  T </v>
   <v type="logical" >  F  F  F </v>
   <v type="logical" >  T  T  T </v>
   <v type="logical" >  T  T  T </v>
   <v type="logical" >  F  F  F </v>
   <v type="logical" >  T  T  T </v>
   <v type="logical" >  T  T  T </v>
   <v type="logical" >  F  F  F </v>
   <v type="logical" >  T  T  T </v>
   <v type="logical" >  T  T  T </v>
   <v type="logical" >  F  F  F </v>
   <v type="logical" >  T  T  T </v>
   <v type="logical" >  T  T  T </v>
   <v type="logical" >  F  F  F </v>
   <v type="logical" >  T  T  T </v>
   <v type="logical" >  T  T  T </v>
   <v type="logical" >  F  F  F </v>
   <v type="logical" >  T  T  T </v>
   <v type="logical" >  F  F  F </v>
   <v type="logical" >  T  T  T </v>
   <v type="logical" >  F  F  F </v>
   <v type="logical" >  T  T  T </v>
   <v type="logical" >  F  F  F </v>
   <v type="logical" >  T  T  T </v>
   <v type="logical" >  F  F  F </v>
   <v type="logical" >  T  T  T </v>
   <v type="logical" >  F  F  F </v>
   <v type="logical" >  T  T  T </v>
   <v type="logical" >  F  F  F </v>
   <v type="logical" >  T  T  T </v>
   <v type="logical" >  F  F  F </v>
   <v type="logical" >  T  T  T </v>
   <v type="logical" >  F  F  F </v>
   <v type="logical" >  T  T  T </v>
   <v type="logical" >  T  T  T </v>
   <v type="logical" >  T  T  T </v>
   <v type="logical" >  T  T  T </v>
   <v type="logical" >  T  T  T </v>
   <v type="logical" >  T  T  T </v>
   <v type="logical" >  T  T  T </v>
   <v type="logical" >  T  T  T </v>
   <v type="logical" >  T  T  T </v>
   <v type="logical" >  T  T  T </v>
   <v type="logical" >  T  T  T </v>
   <v type="logical" >  T  T  T </v>
   <v type="logical" >  T  T  T </v>
   <v type="logical" >  T  T  T </v>
   <v type="logical" >  T  T  T </v>
   <v type="logical" >  T  T  T </v>
   <v type="logical" >  T  T  T </v>
   <v type="logical" >  T  T  T </v>
   <v type="logical" >  T  T  T </v>
  </varray>
  <nose>
   <v>      -3.00000000       0.00000000       0.00010000       0.00010000 </v>
  </nose>
 </structure>
</modeling>
