Mg_slab_in_a_box                        
           1
     9.555753    0.000000    0.000000
    -4.777876    8.275525    0.000000
     0.000000    0.000000   32.625095
   Mg   O    H 
  45   6  12
Direct configuration=     1
   0.00000000  0.00000000  0.00000000
   0.99743091  0.99913719  0.15854981
   0.99774045  0.00401705  0.32958637
   0.00000001  0.33333336  0.00000000
   0.99874958  0.33451420  0.15732467
   0.98838392  0.33299554  0.31147397
   0.00000002  0.66666672  0.00000000
   0.99721553  0.66700290  0.15813416
   0.00168269  0.67236819  0.31500802
   0.33333334  0.00000000  0.00000000
   0.33077984  0.99949202  0.15769135
   0.32608188  0.99677778  0.31160937
   0.33333335  0.33333336  0.00000000
   0.33125344  0.33228313  0.15706061
   0.31623285  0.32056765  0.31119214
   0.33333336  0.66666672  0.00000000
   0.33095960  0.66678256  0.15827268
   0.31601228  0.66774520  0.33078020
   0.66666668  0.00000000  0.00000000
   0.66475753  0.99855512  0.15775143
   0.66399078  0.00868025  0.31375995
   0.66666668  0.33333336  0.00000000
   0.66478960  0.33529507  0.15867491
   0.65886269  0.32322598  0.32709706
   0.66666670  0.66666672  0.00000000
   0.66648689  0.66691700  0.15892082
   0.66645781  0.67370651  0.32287925
   0.11111113  0.22222222  0.07982145
   0.10481404  0.22081009  0.23535376
   0.11111114  0.55555561  0.07982145
   0.11153087  0.55871488  0.23664425
   0.11111116  0.88888894  0.07982145
   0.10569560  0.88962357  0.23603401
   0.44444450  0.22222222  0.07982145
   0.44371269  0.22425585  0.23623825
   0.44444450  0.55555561  0.07982145
   0.44207581  0.55602292  0.23546317
   0.44444451  0.88888894  0.07982145
   0.44078340  0.88462079  0.23657554
   0.77777779  0.22222222  0.07982145
   0.77195064  0.22193945  0.23470263
   0.77777781  0.55555561  0.07982145
   0.76958556  0.55149644  0.24108476
   0.77777784  0.88888894  0.07982145
   0.77565678  0.88702446  0.24011716
   0.98708744  0.99813234  0.39416794
   0.26353542  0.99366246  0.41721661
   0.90937106  0.23487682  0.41574400
   0.62680847  0.36400313  0.38934946
   0.63671534  0.63923723  0.38418541
   0.37630392  0.65637814  0.39124315
   0.96614185  0.08065245  0.40686430
   0.08453738  0.00482257  0.40734355
   0.36090918  0.09801129  0.41194365
   0.25338304  0.92968334  0.39240335
   0.00939767  0.33930136  0.41382363
   0.86048410  0.22129739  0.38806320
   0.63165048  0.47512681  0.39160120
   0.70324496  0.36325279  0.40914003
   0.72872187  0.72437282  0.39908084
   0.43055640  0.55257318  0.31717282
   0.38419387  0.73692937  0.41086690
   0.48249352  0.65122952  0.39272485
