  63  63   0   0
  0.4095168E+02  0.9555753E-09  0.9555753E-09  0.3262510E-08  0.5000000E-15
  1.000000000000000E-004
  CAR 
 Mg_slab_in_a_box                        
      4.01327846    -25.55238922  301     -0.79759379      1.00000000
    -25.552  0.0000E+00  0.0000E+00
    -25.454  0.0000E+00  0.0000E+00
    -25.355  0.0000E+00  0.0000E+00
    -25.257  0.0000E+00  0.0000E+00
    -25.158  0.0000E+00  0.0000E+00
    -25.060  0.0000E+00  0.0000E+00
    -24.961  0.0000E+00  0.0000E+00
    -24.863  0.0000E+00  0.0000E+00
    -24.764  0.0000E+00  0.0000E+00
    -24.665  0.0000E+00  0.0000E+00
    -24.567  0.0000E+00  0.0000E+00
    -24.468  0.0000E+00  0.0000E+00
    -24.370  0.0000E+00  0.0000E+00
    -24.271  0.0000E+00  0.0000E+00
    -24.173  0.0000E+00  0.0000E+00
    -24.074  0.0000E+00  0.0000E+00
    -23.976  0.0000E+00  0.0000E+00
    -23.877  0.0000E+00  0.0000E+00
    -23.778  0.0000E+00  0.0000E+00
    -23.680  0.0000E+00  0.0000E+00
    -23.581  0.0000E+00  0.0000E+00
    -23.483  0.0000E+00  0.2000E+01
    -23.384  0.0000E+00  0.4000E+01
    -23.286  0.0000E+00  0.6000E+01
    -23.187  0.0000E+00  0.8000E+01
    -23.089  0.0000E+00  0.1000E+02
    -22.990  0.0000E+00  0.1000E+02
    -22.891  0.0000E+00  0.1000E+02
    -22.793  0.0000E+00  0.1000E+02
    -22.694  0.0000E+00  0.1000E+02
    -22.596  0.0000E+00  0.1000E+02
    -22.497  0.0000E+00  0.1000E+02
    -22.399  0.0000E+00  0.1000E+02
    -22.300  0.0000E+00  0.1000E+02
    -22.202  0.0000E+00  0.1000E+02
    -22.103  0.0000E+00  0.1000E+02
    -22.005  0.0000E+00  0.1000E+02
    -21.906  0.0000E+00  0.1000E+02
    -21.807  0.0000E+00  0.1000E+02
    -21.709  0.0000E+00  0.1000E+02
    -21.610  0.0000E+00  0.1000E+02
    -21.512  0.0000E+00  0.1000E+02
    -21.413  0.0000E+00  0.1000E+02
    -21.315  0.0000E+00  0.1000E+02
    -21.216  0.0000E+00  0.1000E+02
    -21.118  0.0000E+00  0.1200E+02
    -21.019  0.0000E+00  0.1200E+02
    -20.920  0.0000E+00  0.1200E+02
    -20.822  0.0000E+00  0.1200E+02
    -20.723  0.0000E+00  0.1200E+02
    -20.625  0.0000E+00  0.1200E+02
    -20.526  0.0000E+00  0.1200E+02
    -20.428  0.0000E+00  0.1200E+02
    -20.329  0.0000E+00  0.1200E+02
    -20.231  0.0000E+00  0.1200E+02
    -20.132  0.0000E+00  0.1200E+02
    -20.033  0.0000E+00  0.1200E+02
    -19.935  0.0000E+00  0.1200E+02
    -19.836  0.0000E+00  0.1200E+02
    -19.738  0.0000E+00  0.1200E+02
    -19.639  0.0000E+00  0.1200E+02
    -19.541  0.0000E+00  0.1200E+02
    -19.442  0.0000E+00  0.1200E+02
    -19.344  0.0000E+00  0.1200E+02
    -19.245  0.0000E+00  0.1200E+02
    -19.146  0.0000E+00  0.1200E+02
    -19.048  0.0000E+00  0.1200E+02
    -18.949  0.0000E+00  0.1200E+02
    -18.851  0.0000E+00  0.1200E+02
    -18.752  0.0000E+00  0.1200E+02
    -18.654  0.0000E+00  0.1200E+02
    -18.555  0.0000E+00  0.1200E+02
    -18.457  0.0000E+00  0.1200E+02
    -18.358  0.0000E+00  0.1200E+02
    -18.260  0.0000E+00  0.1200E+02
    -18.161  0.0000E+00  0.1200E+02
    -18.062  0.0000E+00  0.1200E+02
    -17.964  0.0000E+00  0.1200E+02
    -17.865  0.0000E+00  0.1200E+02
    -17.767  0.0000E+00  0.1200E+02
    -17.668  0.0000E+00  0.1200E+02
    -17.570  0.0000E+00  0.1200E+02
    -17.471  0.0000E+00  0.1200E+02
    -17.373  0.0000E+00  0.1200E+02
    -17.274  0.0000E+00  0.1200E+02
    -17.175  0.0000E+00  0.1200E+02
    -17.077  0.0000E+00  0.1200E+02
    -16.978  0.0000E+00  0.1200E+02
    -16.880  0.0000E+00  0.1200E+02
    -16.781  0.0000E+00  0.1200E+02
    -16.683  0.0000E+00  0.1200E+02
    -16.584  0.0000E+00  0.1200E+02
    -16.486  0.0000E+00  0.1200E+02
    -16.387  0.0000E+00  0.1200E+02
    -16.288  0.0000E+00  0.1200E+02
    -16.190  0.0000E+00  0.1200E+02
    -16.091  0.0000E+00  0.1200E+02
    -15.993  0.0000E+00  0.1200E+02
    -15.894  0.0000E+00  0.1200E+02
    -15.796  0.0000E+00  0.1200E+02
    -15.697  0.0000E+00  0.1200E+02
    -15.599  0.0000E+00  0.1200E+02
    -15.500  0.0000E+00  0.1200E+02
    -15.402  0.0000E+00  0.1200E+02
    -15.303  0.0000E+00  0.1200E+02
    -15.204  0.0000E+00  0.1200E+02
    -15.106  0.0000E+00  0.1200E+02
    -15.007  0.0000E+00  0.1200E+02
    -14.909  0.0000E+00  0.1200E+02
    -14.810  0.0000E+00  0.1200E+02
    -14.712  0.0000E+00  0.1200E+02
    -14.613  0.0000E+00  0.1200E+02
    -14.515  0.0000E+00  0.1200E+02
    -14.416  0.0000E+00  0.1200E+02
    -14.317  0.0000E+00  0.1200E+02
    -14.219  0.0000E+00  0.1200E+02
    -14.120  0.0000E+00  0.1200E+02
    -14.022  0.0000E+00  0.1200E+02
    -13.923  0.0000E+00  0.1200E+02
    -13.825  0.0000E+00  0.1200E+02
    -13.726  0.0000E+00  0.1200E+02
    -13.628  0.0000E+00  0.1200E+02
    -13.529  0.0000E+00  0.1200E+02
    -13.430  0.0000E+00  0.1200E+02
    -13.332  0.0000E+00  0.1200E+02
    -13.233  0.0000E+00  0.1200E+02
    -13.135  0.0000E+00  0.1200E+02
    -13.036  0.0000E+00  0.1200E+02
    -12.938  0.0000E+00  0.1200E+02
    -12.839  0.0000E+00  0.1200E+02
    -12.741  0.0000E+00  0.1200E+02
    -12.642  0.0000E+00  0.1200E+02
    -12.543  0.0000E+00  0.1200E+02
    -12.445  0.0000E+00  0.1200E+02
    -12.346  0.0000E+00  0.1200E+02
    -12.248  0.0000E+00  0.1200E+02
    -12.149  0.0000E+00  0.1200E+02
    -12.051  0.0000E+00  0.1200E+02
    -11.952  0.0000E+00  0.1200E+02
    -11.854  0.0000E+00  0.1200E+02
    -11.755  0.0000E+00  0.1200E+02
    -11.657  0.0000E+00  0.1200E+02
    -11.558  0.0000E+00  0.1400E+02
    -11.459  0.0000E+00  0.1600E+02
    -11.361  0.0000E+00  0.1600E+02
    -11.262  0.0000E+00  0.1800E+02
    -11.164  0.0000E+00  0.1800E+02
    -11.065  0.0000E+00  0.2000E+02
    -10.967  0.0000E+00  0.2000E+02
    -10.868  0.0000E+00  0.2200E+02
    -10.770  0.0000E+00  0.2200E+02
    -10.671  0.0000E+00  0.2200E+02
    -10.572  0.0000E+00  0.2200E+02
    -10.474  0.0000E+00  0.2200E+02
    -10.375  0.0000E+00  0.2200E+02
    -10.277  0.0000E+00  0.2200E+02
    -10.178  0.0000E+00  0.2200E+02
    -10.080  0.0000E+00  0.2200E+02
     -9.981  0.0000E+00  0.2200E+02
     -9.883  0.0000E+00  0.2200E+02
     -9.784  0.0000E+00  0.2200E+02
     -9.685  0.0000E+00  0.2200E+02
     -9.587  0.0000E+00  0.2200E+02
     -9.488  0.0000E+00  0.2200E+02
     -9.390  0.0000E+00  0.2200E+02
     -9.291  0.0000E+00  0.2200E+02
     -9.193  0.0000E+00  0.2200E+02
     -9.094  0.0000E+00  0.2200E+02
     -8.996  0.0000E+00  0.2200E+02
     -8.897  0.0000E+00  0.2200E+02
     -8.799  0.0000E+00  0.2200E+02
     -8.700  0.0000E+00  0.2200E+02
     -8.601  0.0000E+00  0.2400E+02
     -8.503  0.1415E+03  0.2634E+02
     -8.404  0.0000E+00  0.2800E+02
     -8.306  0.1163E+03  0.2936E+02
     -8.207  0.0000E+00  0.3000E+02
     -8.109  0.0000E+00  0.3000E+02
     -8.010  0.0000E+00  0.3000E+02
     -7.912  0.0000E+00  0.3000E+02
     -7.813  0.0000E+00  0.3000E+02
     -7.714  0.0000E+00  0.3000E+02
     -7.616  0.0000E+00  0.3200E+02
     -7.517  0.1313E+01  0.3403E+02
     -7.419  0.3843E+01  0.3429E+02
     -7.320  0.7995E+01  0.3484E+02
     -7.222  0.5291E+01  0.3549E+02
     -7.123  0.2587E+01  0.3588E+02
     -7.025  0.4656E+01  0.3617E+02
     -6.926  0.1838E+02  0.3724E+02
     -6.827  0.0000E+00  0.3800E+02
     -6.729  0.7464E+01  0.3836E+02
     -6.630  0.1835E+02  0.3953E+02
     -6.532  0.8797E+01  0.4061E+02
     -6.433  0.7134E+01  0.4159E+02
     -6.335  0.3746E+02  0.4277E+02
     -6.236  0.9370E+01  0.4546E+02
     -6.138  0.6967E+01  0.4738E+02
     -6.039  0.1298E+02  0.4828E+02
     -5.940  0.1607E+02  0.4992E+02
     -5.842  0.1112E+02  0.5256E+02
     -5.743  0.6064E+01  0.5340E+02
     -5.645  0.6666E+01  0.5531E+02
     -5.546  0.2577E+02  0.5823E+02
     -5.448  0.7051E+01  0.5985E+02
     -5.349  0.4227E+02  0.6098E+02
     -5.251  0.2557E+02  0.6286E+02
     -5.152  0.1027E+02  0.6467E+02
     -5.054  0.6973E+01  0.6560E+02
     -4.955  0.9226E+00  0.6599E+02
     -4.856  0.2170E+02  0.6815E+02
     -4.758  0.1141E+02  0.6979E+02
     -4.659  0.9556E+01  0.7061E+02
     -4.561  0.1957E+02  0.7290E+02
     -4.462  0.2517E+02  0.7481E+02
     -4.364  0.1647E+02  0.7628E+02
     -4.265  0.1381E+02  0.7803E+02
     -4.167  0.1780E+02  0.7903E+02
     -4.068  0.3316E+01  0.8034E+02
     -3.969  0.1866E+02  0.8134E+02
     -3.871  0.2075E+02  0.8364E+02
     -3.772  0.7499E+01  0.8470E+02
     -3.674  0.1343E+02  0.8633E+02
     -3.575  0.8322E+01  0.8715E+02
     -3.477  0.7080E+01  0.8791E+02
     -3.378  0.6627E+01  0.8857E+02
     -3.280  0.6932E+01  0.8923E+02
     -3.181  0.1653E+02  0.9138E+02
     -3.082  0.1809E+02  0.9327E+02
     -2.984  0.3417E+02  0.9577E+02
     -2.885  0.2662E+02  0.9903E+02
     -2.787  0.1264E+02  0.1009E+03
     -2.688  0.1762E+02  0.1020E+03
     -2.590  0.1216E+02  0.1040E+03
     -2.491  0.2276E+02  0.1063E+03
     -2.393  0.7594E+01  0.1074E+03
     -2.294  0.4157E+01  0.1091E+03
     -2.196  0.3126E+01  0.1095E+03
     -2.097  0.5544E+01  0.1112E+03
     -1.998  0.1576E+02  0.1122E+03
     -1.900  0.3242E+02  0.1145E+03
     -1.801  0.3016E+02  0.1176E+03
     -1.703  0.3052E+02  0.1206E+03
     -1.604  0.2347E+02  0.1231E+03
     -1.506  0.2309E+02  0.1253E+03
     -1.407  0.1262E+02  0.1270E+03
     -1.309  0.1004E+02  0.1281E+03
     -1.210  0.1053E+02  0.1291E+03
     -1.111  0.3590E+02  0.1310E+03
     -1.013  0.3389E+02  0.1337E+03
     -0.914  0.3088E+02  0.1359E+03
     -0.816  0.2054E+02  0.1374E+03
     -0.717  0.3186E+02  0.1412E+03
     -0.619  0.2267E+02  0.1436E+03
     -0.520  0.7896E+01  0.1447E+03
     -0.422  0.2427E+02  0.1458E+03
     -0.323  0.1008E+02  0.1474E+03
     -0.224  0.1468E+02  0.1490E+03
     -0.126  0.2747E+02  0.1512E+03
     -0.027  0.6161E+01  0.1537E+03
      0.071  0.4067E+02  0.1560E+03
      0.170  0.6029E+02  0.1597E+03
      0.268  0.5398E+02  0.1616E+03
      0.367  0.1386E+02  0.1629E+03
      0.465  0.2584E+02  0.1657E+03
      0.564  0.1797E+02  0.1681E+03
      0.663  0.2434E+02  0.1699E+03
      0.761  0.3508E+02  0.1719E+03
      0.860  0.1974E+02  0.1747E+03
      0.958  0.1517E+02  0.1765E+03
      1.057  0.2424E+02  0.1790E+03
      1.155  0.6503E+02  0.1821E+03
      1.254  0.3287E+02  0.1861E+03
      1.352  0.3150E+02  0.1897E+03
      1.451  0.4476E+02  0.1931E+03
      1.549  0.3506E+02  0.1973E+03
      1.648  0.1276E+02  0.1999E+03
      1.747  0.5732E+01  0.2005E+03
      1.845  0.3920E+01  0.2023E+03
      1.944  0.1449E+02  0.2032E+03
      2.042  0.0000E+00  0.2040E+03
      2.141  0.0000E+00  0.2040E+03
      2.239  0.0000E+00  0.2040E+03
      2.338  0.0000E+00  0.2040E+03
      2.436  0.0000E+00  0.2040E+03
      2.535  0.0000E+00  0.2040E+03
      2.634  0.0000E+00  0.2040E+03
      2.732  0.0000E+00  0.2040E+03
      2.831  0.0000E+00  0.2040E+03
      2.929  0.0000E+00  0.2040E+03
      3.028  0.0000E+00  0.2040E+03
      3.126  0.0000E+00  0.2040E+03
      3.225  0.0000E+00  0.2040E+03
      3.323  0.0000E+00  0.2040E+03
      3.422  0.0000E+00  0.2040E+03
      3.521  0.0000E+00  0.2040E+03
      3.619  0.0000E+00  0.2040E+03
      3.718  0.0000E+00  0.2040E+03
      3.816  0.0000E+00  0.2040E+03
      3.915  0.0000E+00  0.2040E+03
      4.013  0.0000E+00  0.2040E+03
