 vasp.5.4.4.18Apr17-6-g9f103f2a35 (build Jun 08 2018 12:06:12) complex          
  
 executed on             LinuxIFC date 2019.06.06  07:13:18
 running on   72 total cores
 distrk:  each k-point on   72 cores,    1 groups
 distr:  one band on NCORES_PER_BAND=  24 cores,    3 groups


--------------------------------------------------------------------------------------------------------


 INCAR:
 POTCAR:    PAW_PBE Mg 13Apr2007                  
 POTCAR:    PAW_PBE O 08Apr2002                   
 POTCAR:    PAW_PBE H 15Jun2001                   

 ----------------------------------------------------------------------------- 
|                                                                             |
|           W    W    AA    RRRRR   N    N  II  N    N   GGGG   !!!           |
|           W    W   A  A   R    R  NN   N  II  NN   N  G    G  !!!           |
|           W    W  A    A  R    R  N N  N  II  N N  N  G       !!!           |
|           W WW W  AAAAAA  RRRRR   N  N N  II  N  N N  G  GGG   !            |
|           WW  WW  A    A  R   R   N   NN  II  N   NN  G    G                |
|           W    W  A    A  R    R  N    N  II  N    N   GGGG   !!!           |
|                                                                             |
|      For optimal performance we recommend to set                            |
|        NCORE= 4 - approx SQRT( number of cores)                             |
|      NCORE specifies how many cores store one orbital (NPAR=cpu/NCORE).     |
|      This setting can  greatly improve the performance of VASP for DFT.     |
|      The default,   NCORE=1            might be grossly inefficient         |
|      on modern multi-core architectures or massively parallel machines.     |
|      Do your own testing !!!!                                               |
|      Unfortunately you need to use the default for GW and RPA calculations. |
|      (for HF NCORE is supported but not extensively tested yet)             |
|                                                                             |
 ----------------------------------------------------------------------------- 


 ----------------------------------------------------------------------------- 
|                                                                             |
|  ADVICE TO THIS USER RUNNING 'VASP/VAMP'   (HEAR YOUR MASTER'S VOICE ...):  |
|                                                                             |
|      You have switched on vdW-DFT.                                          |
|      This routine was written and supplied by Jiri Klimes.                  |
|      We recommed that you carefully read and cite the following             |
|      publication                                                            |
|      J. Klimes, D.R. Bowler, A. Michelides                                  |
|        J. Phys.: Cond Matt. 22 022201 (2010)                                |
|      J. Klimes, D.R. Bowler, A. Michelides                                  |
|        Phys. Rev. B. 83, 195131 (2011)                                      |
|      and references therein.                                                |
|                                                                             |
 ----------------------------------------------------------------------------- 

 POTCAR:    PAW_PBE Mg 13Apr2007                  
   VRHFIN =Mg: s2p0                                                             
   LEXCH  = PE                                                                  
   EATOM  =    23.0369 eV,    1.6932 Ry                                         
                                                                                
   TITEL  = PAW_PBE Mg 13Apr2007                                                
   LULTRA =        F    use ultrasoft PP ?                                      
   IUNSCR =        1    unscreen: 0-lin 1-nonlin 2-no                           
   RPACOR =    1.500    partial core radius                                     
   POMASS =   24.305; ZVAL   =    2.000    mass and valenz                      
   RCORE  =    2.000    outmost cutoff radius                                   
   RWIGS  =    2.880; RWIGS  =    1.524    wigner-seitz radius (au A)           
   ENMAX  =  200.000; ENMIN  =  100.000 eV                                      
   RCLOC  =    1.506    cutoff for local pot                                    
   LCOR   =        T    correct aug charges                                     
   LPAW   =        T    paw PP                                                  
   EAUG   =  454.734                                                            
   DEXC   =    0.000                                                            
   RMAX   =    2.045    core radius for proj-oper                               
   RAUG   =    1.300    factor for augmentation sphere                          
   RDEP   =    2.025    radius for radial grids                                 
   RDEPT  =    1.942    core radius for aug-charge                              
                                                                                
   Atomic configuration                                                         
    6 entries                                                                   
     n  l   j            E        occ.                                          
     1  0  0.50     -1259.6230   2.0000                                         
     2  0  0.50       -79.8442   2.0000                                         
     2  1  1.50       -46.6121   6.0000                                         
     3  0  0.50        -4.7055   2.0000                                         
     3  1  0.50        -1.3660   0.0000                                         
     3  2  1.50        -1.3606   0.0000                                         
   Description                                                                  
     l       E           TYP  RCUT    TYP  RCUT                                 
     0     -4.7054661     23  2.000                                             
     0     27.2116520     23  2.000                                             
     1      1.3605826     23  2.000                                             
     1     27.2116520     23  2.000                                             
     2     -1.3605826     23  2.000                                             
  local pseudopotential read in
  partial core-charges read in
  partial kinetic energy density read in
  atomic valenz-charges read in
  non local Contribution for L=           0  read in
    real space projection operators read in
  non local Contribution for L=           0  read in
    real space projection operators read in
  non local Contribution for L=           1  read in
    real space projection operators read in
  non local Contribution for L=           1  read in
    real space projection operators read in
  non local Contribution for L=           2  read in
    real space projection operators read in
    PAW grid and wavefunctions read in
 
   number of l-projection  operators is LMAX  =           5
   number of lm-projection operators is LMMAX =          13
 
 POTCAR:    PAW_PBE O 08Apr2002                   
   VRHFIN =O: s2p4                                                              
   LEXCH  = PE                                                                  
   EATOM  =   432.3788 eV,   31.7789 Ry                                         
                                                                                
   TITEL  = PAW_PBE O 08Apr2002                                                 
   LULTRA =        F    use ultrasoft PP ?                                      
   IUNSCR =        1    unscreen: 0-lin 1-nonlin 2-no                           
   RPACOR =    1.200    partial core radius                                     
   POMASS =   16.000; ZVAL   =    6.000    mass and valenz                      
   RCORE  =    1.520    outmost cutoff radius                                   
   RWIGS  =    1.550; RWIGS  =    0.820    wigner-seitz radius (au A)           
   ENMAX  =  400.000; ENMIN  =  300.000 eV                                      
   ICORE  =        2    local potential                                         
   LCOR   =        T    correct aug charges                                     
   LPAW   =        T    paw PP                                                  
   EAUG   =  605.392                                                            
   DEXC   =    0.000                                                            
   RMAX   =    1.553    core radius for proj-oper                               
   RAUG   =    1.300    factor for augmentation sphere                          
   RDEP   =    1.550    radius for radial grids                                 
   RDEPT  =    1.329    core radius for aug-charge                              
                                                                                
   Atomic configuration                                                         
    4 entries                                                                   
     n  l   j            E        occ.                                          
     1  0  0.50      -514.6923   2.0000                                         
     2  0  0.50       -23.9615   2.0000                                         
     2  1  0.50        -9.0305   4.0000                                         
     3  2  1.50        -9.5241   0.0000                                         
   Description                                                                  
     l       E           TYP  RCUT    TYP  RCUT                                 
     0    -23.9615318     23  1.200                                             
     0     -9.5240782     23  1.200                                             
     1     -9.0304911     23  1.520                                             
     1      8.1634956     23  1.520                                             
     2     -9.5240782      7  1.500                                             
  local pseudopotential read in
  partial core-charges read in
  partial kinetic energy density read in
  kinetic energy density of atom read in
  atomic valenz-charges read in
  non local Contribution for L=           0  read in
    real space projection operators read in
  non local Contribution for L=           0  read in
    real space projection operators read in
  non local Contribution for L=           1  read in
    real space projection operators read in
  non local Contribution for L=           1  read in
    real space projection operators read in
    PAW grid and wavefunctions read in
 
   number of l-projection  operators is LMAX  =           4
   number of lm-projection operators is LMMAX =           8
 
 POTCAR:    PAW_PBE H 15Jun2001                   
   VRHFIN =H: ultrasoft test                                                    
   LEXCH  = PE                                                                  
   EATOM  =    12.4884 eV,    0.9179 Ry                                         
                                                                                
   TITEL  = PAW_PBE H 15Jun2001                                                 
   LULTRA =        F    use ultrasoft PP ?                                      
   IUNSCR =        0    unscreen: 0-lin 1-nonlin 2-no                           
   RPACOR =    0.000    partial core radius                                     
   POMASS =    1.000; ZVAL   =    1.000    mass and valenz                      
   RCORE  =    1.100    outmost cutoff radius                                   
   RWIGS  =    0.700; RWIGS  =    0.370    wigner-seitz radius (au A)           
   ENMAX  =  250.000; ENMIN  =  200.000 eV                                      
   RCLOC  =    0.701    cutoff for local pot                                    
   LCOR   =        T    correct aug charges                                     
   LPAW   =        T    paw PP                                                  
   EAUG   =  400.000                                                            
   RMAX   =    1.123    core radius for proj-oper                               
   RAUG   =    1.200    factor for augmentation sphere                          
   RDEP   =    1.112    radius for radial grids                                 
   RDEPT  =    0.926    core radius for aug-charge                              
                                                                                
   Atomic configuration                                                         
    2 entries                                                                   
     n  l   j            E        occ.                                          
     1  0  0.50        -6.4927   1.0000                                         
     2  1  0.50        -3.4015   0.0000                                         
   Description                                                                  
     l       E           TYP  RCUT    TYP  RCUT                                 
     0     -6.4927494     23  1.100                                             
     0      6.8029130     23  1.100                                             
     1     -4.0817478     23  1.100                                             
  local pseudopotential read in
  atomic valenz-charges read in
  non local Contribution for L=           0  read in
    real space projection operators read in
  non local Contribution for L=           0  read in
    real space projection operators read in
  non local Contribution for L=           1  read in
    real space projection operators read in
    PAW grid and wavefunctions read in
 
   number of l-projection  operators is LMAX  =           3
   number of lm-projection operators is LMMAX =           5
 
 Optimization of the real space projectors (new method)

 maximal supplied QI-value         = 18.90
 optimisation between [QCUT,QGAM] = [ 11.53, 23.24] = [ 37.21,151.29] Ry 
 Optimized for a Real-space Cutoff    1.28 Angstroem

   l    n(q)    QCUT    max X(q) W(low)/X(q) W(high)/X(q)  e(spline) 
   0      9    11.527    28.265    0.62E-04    0.53E-04    0.73E-07
   0      9    11.527    10.429    0.52E-04    0.40E-04    0.58E-07
   1      8    11.527    13.073    0.98E-04    0.18E-03    0.86E-07
   1      8    11.527     9.625    0.79E-04    0.15E-03    0.74E-07
   2      8    11.527     4.652    0.22E-03    0.72E-04    0.47E-07
 Optimization of the real space projectors (new method)

 maximal supplied QI-value         = 24.76
 optimisation between [QCUT,QGAM] = [ 11.64, 23.27] = [ 37.91,151.63] Ry 
 Optimized for a Real-space Cutoff    1.14 Angstroem

   l    n(q)    QCUT    max X(q) W(low)/X(q) W(high)/X(q)  e(spline) 
   0      8    11.635    20.381    0.10E-03    0.33E-03    0.24E-06
   0      8    11.635    15.268    0.11E-03    0.35E-03    0.26E-06
   1      7    11.635     5.964    0.24E-03    0.31E-03    0.30E-06
   1      7    11.635     5.382    0.22E-03    0.25E-03    0.26E-06
 Optimization of the real space projectors (new method)

 maximal supplied QI-value         = 34.20
 optimisation between [QCUT,QGAM] = [ 11.63, 23.26] = [ 37.87,151.49] Ry 
 Optimized for a Real-space Cutoff    1.21 Angstroem

   l    n(q)    QCUT    max X(q) W(low)/X(q) W(high)/X(q)  e(spline) 
   0      8    11.629    19.460    0.17E-03    0.34E-03    0.21E-06
   0      8    11.629    12.209    0.16E-03    0.33E-03    0.21E-06
   1      8    11.629     4.655    0.18E-03    0.16E-03    0.26E-06

 ----------------------------------------------------------------------------- 
|                                                                             |
|  ADVICE TO THIS USER RUNNING 'VASP/VAMP'   (HEAR YOUR MASTER'S VOICE ...):  |
|                                                                             |
|      You enforced a specific xc-type in the INCAR file,                     |
|      a different type was found on the POTCAR file                          |
|          I HOPE YOU KNOW, WHAT YOU ARE  DOING                               |
|                                                                             |
 ----------------------------------------------------------------------------- 

  PAW_PBE Mg 13Apr2007                  :
 energy of atom  1       EATOM=  -23.0369
 kinetic energy error for atom=    0.0000 (will be added to EATOM!!)
  PAW_PBE O 08Apr2002                   :
 energy of atom  2       EATOM= -432.3788
 kinetic energy error for atom=    0.0208 (will be added to EATOM!!)
  PAW_PBE H 15Jun2001                   :
 energy of atom  3       EATOM=  -12.4884
 kinetic energy error for atom=    0.0014 (will be added to EATOM!!)
 
 
 POSCAR: Mg   O    H                             
  positions in direct lattice
  velocities in cartesian coordinates
 exchange correlation table for  LEXCH =       42
   RHO(1)=    0.500       N(1)  =     2000
   RHO(2)=  100.500       N(2)  =     4000

 VTST: version 3.2, (02/03/18)

 CHAIN: initializing optimizer
 
 OPT: Using VASP Dynamics algorithm
 CHAIN: Read ICHAIN            0
 
 POSCAR: Mg   O    H                             
  positions in direct lattice
  velocities in cartesian coordinates
 


--------------------------------------------------------------------------------------------------------


 ion  position               nearest neighbor table
   1  0.000  0.000  0.000-   7 3.19  25 3.19  19 3.19  10 3.19   4 3.19  13 3.19  44 3.19  32 3.19
                            28 3.19
   2  0.997  0.998  0.158-  33 3.09  29 3.11  44 3.14  28 3.16  32 3.16  26 3.16  20 3.17   8 3.18
                            14 3.19  11 3.19   5 3.20  45 3.26
   3  0.998  0.004  0.331-  46 2.11  15 3.11  27 3.18   9 3.20  12 3.22   6 3.25  21 3.26  45 3.48
                            29 3.60  33 3.63
   4  0.000  0.333  0.000-  22 3.19  13 3.19  19 3.19  16 3.19   1 3.19   7 3.19  40 3.19  30 3.19
                            28 3.19
   5  0.998  0.334  0.157-  40 3.12  30 3.13  29 3.13  28 3.14  41 3.15  17 3.17   8 3.18  31 3.19
                            14 3.19  23 3.19   2 3.20  20 3.20
   6  0.987  0.332  0.311-  31 3.07  41 3.07  21 3.10  29 3.12  24 3.14  15 3.19   9 3.21  18 3.22
                             3 3.25
   7  0.000  0.667  0.000-   1 3.19  10 3.19  25 3.19  16 3.19  22 3.19   4 3.19  42 3.19  32 3.19
                            30 3.19
   8  0.997  0.666  0.158-  33 3.12  42 3.13  32 3.15  30 3.16  26 3.16  31 3.16  23 3.17   2 3.18
                             5 3.18  11 3.19  17 3.19  43 3.32
   9  0.998  0.673  0.315-  43 3.06  18 3.08  12 3.11  33 3.14  31 3.17   3 3.20   6 3.21  27 3.23
                            24 3.33
  10  0.333  0.000  0.000-  16 3.19   7 3.19  19 3.19   1 3.19  22 3.19  13 3.19  32 3.19  34 3.19
                            38 3.19
  11  0.331  0.999  0.158-  32 3.12  38 3.14  34 3.14  33 3.16  35 3.16  17 3.18  14 3.18  39 3.18
                             8 3.19   2 3.19  20 3.20  23 3.20
  12  0.325  0.998  0.310-  33 3.05  35 3.07  39 3.07   9 3.11  15 3.14  18 3.17  24 3.19  21 3.20
                             3 3.22
  13  0.333  0.333  0.000-  22 3.19   4 3.19  10 3.19   1 3.19  25 3.19  16 3.19  28 3.19  36 3.19
                            34 3.19
  14  0.331  0.331  0.157-  28 3.10  34 3.12  36 3.13  37 3.14  35 3.15  23 3.18  29 3.18  11 3.18
                             2 3.19   5 3.19  17 3.20  26 3.21
  15  0.316  0.321  0.311-  61 1.92  29 3.03  35 3.08   3 3.11  12 3.14  37 3.15   6 3.19  24 3.30
                            18 3.38  27 3.38
  16  0.333  0.667  0.000-  10 3.19  19 3.19   7 3.19  25 3.19   4 3.19  13 3.19  38 3.19  30 3.19
                            36 3.19
  17  0.330  0.666  0.158-  37 3.10  39 3.13  30 3.13  31 3.15  38 3.15  36 3.16   5 3.17  11 3.18
                            20 3.18   8 3.19  14 3.20  26 3.21
  18  0.314  0.668  0.330-  61 1.94  51 2.09   9 3.08  12 3.17   6 3.22  27 3.31  21 3.33  15 3.38
                            31 3.47  39 3.53
  19  0.667  0.000  0.000-  25 3.19  16 3.19   1 3.19  10 3.19   4 3.19  22 3.19  38 3.19  44 3.19
                            40 3.19
  20  0.665  0.998  0.158-  41 3.11  38 3.13  44 3.14  40 3.15  39 3.17   2 3.17  26 3.18  17 3.18
                            11 3.20   5 3.20  23 3.22  45 3.28
  21  0.663  0.007  0.314-  24 3.07  45 3.08   6 3.10  41 3.13  39 3.13  12 3.20  27 3.21   3 3.26
                            18 3.33
  22  0.667  0.333  0.000-  13 3.19   4 3.19  10 3.19  25 3.19   7 3.19  19 3.19  34 3.19  42 3.19
                            40 3.19
  23  0.665  0.335  0.159-  41 3.08  35 3.12  34 3.15  42 3.16  26 3.16   8 3.17  14 3.18  40 3.18
                             5 3.19  11 3.20  20 3.22  43 3.24
  24  0.658  0.322  0.327-  49 2.11  21 3.07   6 3.14  12 3.19  15 3.30   9 3.33  27 3.34  43 3.36
                            35 3.46  41 3.49
  25  0.667  0.667  0.000-   1 3.19  19 3.19   7 3.19  16 3.19  22 3.19  13 3.19  36 3.19  42 3.19
                            44 3.19
  26  0.667  0.666  0.159-  37 3.10   8 3.16  23 3.16   2 3.16  42 3.17  36 3.17  44 3.17  20 3.18
                            14 3.21  17 3.21  45 3.22  43 3.24
  27  0.663  0.674  0.327-  61 1.96  50 2.02   3 3.18  21 3.21   9 3.23  18 3.31  45 3.32  24 3.34
                            43 3.38  15 3.38  37 3.53
  28  0.111  0.222  0.080-  14 3.10   5 3.14   2 3.16  44 3.19  32 3.19  40 3.19  34 3.19  36 3.19
                            30 3.19   1 3.19  13 3.19   4 3.19
  29  0.104  0.219  0.235-  15 3.03   2 3.11   6 3.12   5 3.13  33 3.17  45 3.17  14 3.18  41 3.19
                            31 3.20  37 3.21  35 3.22   3 3.60
  30  0.111  0.556  0.080-   5 3.13  17 3.13   8 3.16  32 3.19  42 3.19  38 3.19  40 3.19  36 3.19
                            28 3.19  16 3.19   7 3.19   4 3.19
  31  0.111  0.558  0.237-   6 3.07  39 3.13  17 3.15   8 3.16  37 3.17   9 3.17  33 3.18   5 3.19
                            29 3.20  41 3.24  43 3.25  18 3.47
  32  0.111  0.889  0.080-  11 3.12   8 3.15   2 3.16  28 3.19  34 3.19  44 3.19  30 3.19  42 3.19
                            38 3.19  10 3.19   1 3.19   7 3.19
  33  0.104  0.887  0.235-  12 3.05   2 3.09   8 3.12  45 3.14   9 3.14  11 3.16  29 3.17  31 3.18
                            35 3.22  43 3.23  39 3.24   3 3.63
  34  0.444  0.222  0.080-  14 3.12  11 3.14  23 3.15  38 3.19  40 3.19  32 3.19  42 3.19  28 3.19
                            36 3.19  22 3.19  10 3.19  13 3.19
  35  0.443  0.224  0.236-  12 3.07  15 3.08  43 3.12  23 3.12  41 3.15  14 3.15  11 3.16  37 3.17
                            29 3.22  33 3.22  39 3.25  24 3.46
  36  0.444  0.556  0.080-  14 3.13  17 3.16  26 3.17  42 3.19  38 3.19  44 3.19  30 3.19  28 3.19
                            34 3.19  25 3.19  13 3.19  16 3.19
  37  0.441  0.555  0.235-  26 3.10  17 3.10  39 3.14  14 3.14  43 3.15  15 3.15  31 3.17  35 3.17
                            45 3.18  29 3.21  27 3.53
  38  0.444  0.889  0.080-  20 3.13  11 3.14  17 3.15  40 3.19  34 3.19  44 3.19  36 3.19  30 3.19
                            32 3.19  19 3.19  16 3.19  10 3.19
  39  0.441  0.883  0.237-  12 3.07  17 3.13  31 3.13  21 3.13  37 3.14  20 3.17  11 3.18  41 3.19
                            45 3.19  33 3.24  35 3.25  18 3.53
  40  0.778  0.222  0.080-   5 3.12  20 3.15  23 3.18  38 3.19  34 3.19  44 3.19  28 3.19  30 3.19
                            42 3.19   4 3.19  19 3.19  22 3.19
  41  0.771  0.220  0.235-   6 3.07  23 3.08  20 3.11  21 3.13   5 3.15  35 3.15  43 3.18  29 3.19
                            39 3.19  45 3.23  31 3.24  24 3.49
  42  0.778  0.556  0.080-   8 3.13  23 3.16  26 3.17  36 3.19  44 3.19  30 3.19  32 3.19  34 3.19
                            40 3.19  25 3.19   7 3.19  22 3.19
  43  0.767  0.550  0.242-   9 3.06  35 3.12  37 3.15  45 3.16  41 3.18  33 3.23  23 3.24  26 3.24
                            31 3.25   8 3.32  24 3.36  27 3.38
  44  0.778  0.889  0.080-  20 3.14   2 3.14  26 3.17  28 3.19  40 3.19  42 3.19  32 3.19  38 3.19
                            36 3.19   1 3.19  19 3.19  25 3.19
  45  0.775  0.884  0.241-  21 3.08  33 3.14  43 3.16  29 3.17  37 3.18  39 3.19  26 3.22  41 3.23
                             2 3.26  20 3.28  27 3.32   3 3.48
  46  0.995  0.005  0.396-  53 0.99  52 0.99   3 2.11
  47  0.267  0.972  0.416-  54 0.98  55 0.99
  48  0.910  0.238  0.415-  56 0.98  57 1.00
  49  0.627  0.360  0.389-  59 0.98  58 1.04  24 2.11
  50  0.626  0.632  0.388-  60 0.98  27 2.02
  51  0.364  0.668  0.392-  62 0.98  63 1.02  18 2.09
  52  0.975  0.088  0.409-  46 0.99
  53  0.089  0.006  0.409-  46 0.99
  54  0.367  0.075  0.412-  47 0.98
  55  0.245  0.922  0.388-  47 0.99
  56  0.006  0.345  0.413-  48 0.98
  57  0.860  0.219  0.388-  48 1.00
  58  0.626  0.468  0.393-  49 1.04
  59  0.705  0.359  0.408-  49 0.98
  60  0.717  0.711  0.404-  50 0.98
  61  0.427  0.549  0.322-  15 1.92  18 1.94  27 1.96
  62  0.369  0.753  0.410-  51 0.98
  63  0.465  0.659  0.396-  51 1.02
 
  LATTYP: Found a hexagonal cell.
 ALAT       =     9.5557527542
 C/A-ratio  =     3.4141837076
  
  Lattice vectors:
  
 A1 = (   9.5557527542,   0.0000000000,   0.0000000000)
 A2 = (  -4.7778763771,   8.2755246374,   0.0000000000)
 A3 = (   0.0000000000,   0.0000000000,  32.6250953674)


Analysis of symmetry for initial positions (statically):
=====================================================================
 Subroutine PRICEL returns:
 Original cell was already a primitive cell.
 

 Routine SETGRP: Setting up the symmetry group for a 
 hexagonal supercell.


 Subroutine GETGRP returns: Found  1 space group operations
 (whereof  1 operations were pure point group operations)
 out of a pool of 24 trial point group operations.


The static configuration has the point symmetry C_1 .


Analysis of symmetry for dynamics (positions and initial velocities):
=====================================================================
 Subroutine PRICEL returns:
 Original cell was already a primitive cell.
 

 Routine SETGRP: Setting up the symmetry group for a 
 hexagonal supercell.


 Subroutine GETGRP returns: Found  1 space group operations
 (whereof  1 operations were pure point group operations)
 out of a pool of 24 trial point group operations.


The dynamic configuration has the point symmetry C_1 .


Analysis of constrained symmetry for selective dynamics:
=====================================================================
 Subroutine PRICEL returns:
 Original cell was already a primitive cell.
 

 Routine SETGRP: Setting up the symmetry group for a 
 hexagonal supercell.


 Subroutine GETGRP returns: Found  1 space group operations
 (whereof  1 operations were pure point group operations)
 out of a pool of 24 trial point group operations.


The constrained configuration has the point symmetry C_1 .


 Subroutine INISYM returns: Found  1 space group operations
 (whereof  1 operations are pure point group operations),
 and found     1 'primitive' translations

 
 
 KPOINTS: Auto                                    

Automatic generation of k-mesh.
Space group operators:
 irot       det(A)        alpha          n_x          n_y          n_z        tau_x        tau_y        tau_z
    1     1.000000     0.000000     1.000000     0.000000     0.000000     0.000000     0.000000     0.000000
 
 Subroutine IBZKPT returns following result:
 ===========================================
 
 Found      5 irreducible k-points:
 
 Following reciprocal coordinates:
            Coordinates               Weight
  0.000000  0.000000  0.000000      1.000000
  0.333333 -0.000000  0.000000      2.000000
  0.000000  0.333333  0.000000      2.000000
  0.333333  0.333333  0.000000      2.000000
 -0.333333  0.333333  0.000000      2.000000
 
 Following cartesian coordinates:
            Coordinates               Weight
  0.000000  0.000000  0.000000      1.000000
  0.034883  0.020140  0.000000      2.000000
  0.000000  0.040279  0.000000      2.000000
  0.034883  0.060419  0.000000      2.000000
 -0.034883  0.020140  0.000000      2.000000
 
 TETIRR: Found     24 inequivalent tetrahedra from       54


--------------------------------------------------------------------------------------------------------




 Dimension of arrays:
   k-points           NKPTS =      5   k-points in BZ     NKDIM =      5   number of bands    NBANDS=    102
   number of dos      NEDOS =    301   number of ions     NIONS =     63
   non local maximal  LDIM  =      5   non local SUM 2l+1 LMDIM =     13
   total plane-waves  NPLWV = ******
   max r-space proj   IRMAX =   4509   max aug-charges    IRDMAX=  21536
   dimension x,y,z NGX =    72 NGY =   72 NGZ =  250
   dimension x,y,z NGXF=   144 NGYF=  144 NGZF=  500
   support grid    NGXF=   144 NGYF=  144 NGZF=  500
   ions per type =              45   6  12
   NGX,Y,Z   is equivalent  to a cutoff of  12.53, 12.53, 12.74 a.u.
   NGXF,Y,Z  is equivalent  to a cutoff of  25.05, 25.05, 25.48 a.u.

 SYSTEM =  Mg_slab_in_a_box                        
 POSCAR =  Mg   O    H                             

 Startparameter for this run:
   NWRITE =      2    write-flag & timer
   PREC   = accura    normal or accurate (medium, high low for compatibility)
   ISTART =      0    job   : 0-new  1-cont  2-samecut
   ICHARG =      2    charge: 1-file 2-atom 10-const
   ISPIN  =      1    spin polarized calculation?
   LNONCOLLINEAR =      F non collinear calculations
   LSORBIT =      F    spin-orbit coupling
   INIWAV =      1    electr: 0-lowe 1-rand  2-diag
   LASPH  =      T    aspherical Exc in radial PAW
   METAGGA=      F    non-selfconsistent MetaGGA calc.

 Electronic Relaxation 1
   ENCUT  =  520.0 eV  38.22 Ry    6.18 a.u.  17.77 17.77 60.66*2*pi/ulx,y,z
   ENINI  =  520.0     initial cutoff
   ENAUG  =  605.4 eV  augmentation charge cutoff
   NELM   =    300;   NELMIN=  6; NELMDL=-12     # of ELM steps 
   EDIFF  = 0.5E-05   stopping-criterion for ELM
   LREAL  =      T    real-space projection
   NLSPLINE    = F    spline interpolate recip. space projectors
   LCOMPAT=      F    compatible to vasp.4.4
   GGA_COMPAT  = T    GGA compatible to vasp.4.4-vasp.4.6
   LMAXPAW     = -100 max onsite density
   LMAXMIX     =    2 max onsite mixed and CHGCAR
   VOSKOWN=      0    Vosko Wilk Nusair interpolation
   ROPT   =   -0.00025  -0.00025  -0.00025
 Ionic relaxation
   EDIFFG = 0.5E-04   stopping-criterion for IOM
   NSW    =      0    number of steps for IOM
   NBLOCK =      1;   KBLOCK =      1    inner block; outer block 
   IBRION =     -1    ionic relax: 0-MD 1-quasi-New 2-CG
   NFREE  =      0    steps in history (QN), initial steepest desc. (CG)
   ISIF   =      2    stress and relaxation
   IWAVPR =     10    prediction:  0-non 1-charg 2-wave 3-comb
   ISYM   =      2    0-nonsym 1-usesym 2-fastsym
   LCORR  =      T    Harris-Foulkes like correction to forces

   POTIM  = 0.5000    time-step for ionic-motion
   TEIN   =    0.0    initial temperature
   TEBEG  =    0.0;   TEEND  =   0.0 temperature during run
   SMASS  =  -3.00    Nose mass-parameter (am)
   estimated Nose-frequenzy (Omega)   =  0.10E-29 period in steps =****** mass=  -0.209E-26a.u.
   SCALEE = 1.0000    scale energy and forces
   NPACO  =    256;   APACO  = 16.0  distance and # of slots for P.C.
   PSTRESS=    0.0 pullay stress

  Mass of Ions in am
   POMASS =  24.30 16.00  1.00
  Ionic Valenz
   ZVAL   =   2.00  6.00  1.00
  Atomic Wigner-Seitz radii
   RWIGS  =  -1.00 -1.00 -1.00
  virtual crystal weights 
   VCA    =   1.00  1.00  1.00
   NELECT =     138.0000    total number of electrons
   NUPDOWN=      -1.0000    fix difference up-down

 DOS related values:
   EMIN   =  10.00;   EMAX   =-10.00  energy-range for DOS
   EFERMI =   0.00
   ISMEAR =    -5;   SIGMA  =   0.20  broadening in eV -4-tet -1-fermi 0-gaus

 Electronic relaxation 2 (details)
   IALGO  =     48    algorithm
   LDIAG  =      T    sub-space diagonalisation (order eigenvalues)
   LSUBROT=      F    optimize rotation matrix (better conditioning)
   TURBO    =      0    0=normal 1=particle mesh
   IRESTART =      0    0=no restart 2=restart with 2 vectors
   NREBOOT  =      0    no. of reboots
   NMIN     =      0    reboot dimension
   EREF     =   0.00    reference energy to select bands
   IMIX   =      4    mixing-type and parameters
     AMIX     =   0.40;   BMIX     =  1.00
     AMIX_MAG =   1.60;   BMIX_MAG =  1.00
     AMIN     =   0.10
     WC   =   100.;   INIMIX=   1;  MIXPRE=   1;  MAXMIX= -45

 Intra band minimization:
   WEIMIN = 0.0000     energy-eigenvalue tresh-hold
   EBREAK =  0.12E-07  absolut break condition
   DEPER  =   0.30     relativ break condition  

   TIME   =   0.40     timestep for ELM

  volume/ion in A,a.u.               =      40.95       276.36
  Fermi-wavevector in a.u.,A,eV,Ry     =   0.616828  1.165635  5.176694  0.380476
  Thomas-Fermi vector in A             =   1.674695
 
 Write flags
   LWAVE        =      F    write WAVECAR
   LDOWNSAMPLE  =      F    k-point downsampling of WAVECAR
   LCHARG       =      T    write CHGCAR
   LVTOT        =      F    write LOCPOT, total local potential
   LVHAR        =      T    write LOCPOT, Hartree potential only
   LELF         =      F    write electronic localiz. function (ELF)
   LORBIT       =      0    0 simple, 1 ext, 2 COOP (PROOUT), +10 PAW based schemes


 Dipole corrections
   LMONO  =      F    monopole corrections only (constant potential shift)
   LDIPOL =      T    correct potential (dipole corrections)
   IDIPOL =      3    1-x, 2-y, 3-z, 4-all directions 
   EPSILON=  1.0000000 bulk dielectric constant

 Exchange correlation treatment:
   GGA     =    BO    GGA type
   LEXCH   =    42    internal setting for exchange type
   VOSKOWN=      0    Vosko Wilk Nusair interpolation
   LHFCALC =     F    Hartree Fock is set to
   LHFONE  =     F    Hartree Fock one center treatment
   AEXX    =    0.0000 exact exchange contribution

 vdW DFT:
   LUSE_VDW   =     T    switch on vdW DFT
   Zab_VDW    =-.8491    correlation parameter
   PARAM1     =0.1833
   PARAM2     =0.2200
   PARAM3     =0.0000
   -- rVV10 --
   BPARAM     = 6.3000
   CPARAM     = 0.0093

 Linear response parameters
   LEPSILON=     F    determine dielectric tensor
   LRPA    =     F    only Hartree local field effects (RPA)
   LNABLA  =     F    use nabla operator in PAW spheres
   LVEL    =     F    velocity operator in full k-point grid
   LINTERFAST=   F  fast interpolation
   KINTER  =     0    interpolate to denser k-point grid
   CSHIFT  =0.1000    complex shift for real part using Kramers Kronig
   OMEGAMAX=  -1.0    maximum frequency
   DEG_THRESHOLD= 0.2000000E-02 threshold for treating states as degnerate
   RTIME   =   -0.100 relaxation time in fs
  (WPLASMAI=    0.000 imaginary part of plasma frequency in eV, 0.658/RTIME)
   DFIELD  = 0.0000000 0.0000000 0.0000000 field for delta impulse in time
 
 Orbital magnetization related:
   ORBITALMAG=     F  switch on orbital magnetization
   LCHIMAG   =     F  perturbation theory with respect to B field
   DQ        =  0.001000  dq finite difference perturbation B field
   LLRAUG    =     F  two centre corrections for induced B field



--------------------------------------------------------------------------------------------------------


 Static calculation
 charge density and potential will be updated during run
 non-spin polarized calculation
 RMM-DIIS sequential band-by-band
 perform sub-space diagonalisation
    before iterative eigenvector-optimisation
 modified Broyden-mixing scheme, WC =      100.0
 initial mixing is a Kerker type mixing with AMIX =  0.4000 and BMIX =      1.0000
 Hartree-type preconditioning will be used
 using additional bands           33
 real space projection scheme for non local part
 use partial core corrections
 calculate Harris-corrections to forces 
   (improved forces if not selfconsistent)
 use gradient corrections 
 use of overlap-Matrix (Vanderbilt PP)
 Fermi weights with tetrahedron method with Bloechl corrections


--------------------------------------------------------------------------------------------------------


  energy-cutoff  :      520.00
  volume of cell :     2579.96
      direct lattice vectors                 reciprocal lattice vectors
     9.555752754  0.000000000  0.000000000     0.104649003  0.060419130  0.000000000
    -4.777876377  8.275524637  0.000000000     0.000000000  0.120838260  0.000000000
     0.000000000  0.000000000 32.625095367     0.000000000  0.000000000  0.030651251

  length of vectors
     9.555752754  9.555752754 32.625095367     0.120838260  0.120838260  0.030651251


 
 k-points in units of 2pi/SCALE and weight: Auto                                    
   0.00000000  0.00000000  0.00000000       0.111
   0.03488300  0.02013971  0.00000000       0.222
   0.00000000  0.04027942  0.00000000       0.222
   0.03488300  0.06041913  0.00000000       0.222
  -0.03488300  0.02013971  0.00000000       0.222
 
 k-points in reciprocal lattice and weights: Auto                                    
   0.00000000  0.00000000  0.00000000       0.111
   0.33333333 -0.00000000  0.00000000       0.222
   0.00000000  0.33333333  0.00000000       0.222
   0.33333333  0.33333333  0.00000000       0.222
  -0.33333333  0.33333333  0.00000000       0.222
 
 position of ions in fractional coordinates (direct lattice) 
   0.00000000  0.00000000  0.00000000
   0.99693465  0.99847887  0.15840122
   0.99794054  0.00356768  0.33119919
   0.00000001  0.33333336  0.00000000
   0.99832380  0.33366384  0.15741446
   0.98697691  0.33167292  0.31129262
   0.00000002  0.66666672  0.00000000
   0.99676519  0.66579223  0.15797047
   0.99821338  0.67301081  0.31492761
   0.33333334  0.00000000  0.00000000
   0.33058778  0.99859322  0.15753391
   0.32464423  0.99753620  0.31043188
   0.33333335  0.33333336  0.00000000
   0.33060643  0.33137350  0.15690501
   0.31604887  0.32148905  0.31115536
   0.33333336  0.66666672  0.00000000
   0.33030313  0.66615547  0.15812306
   0.31356087  0.66764894  0.32994107
   0.66666668  0.00000000  0.00000000
   0.66456853  0.99768131  0.15779968
   0.66340840  0.00687347  0.31406820
   0.66666668  0.33333336  0.00000000
   0.66462588  0.33454177  0.15870709
   0.65757909  0.32213990  0.32671901
   0.66666670  0.66666672  0.00000000
   0.66662121  0.66645563  0.15894481
   0.66281747  0.67379193  0.32725367
   0.11111113  0.22222222  0.07982145
   0.10375180  0.21894099  0.23548994
   0.11111114  0.55555561  0.07982145
   0.11068414  0.55766656  0.23681435
   0.11111116  0.88888894  0.07982145
   0.10424758  0.88747158  0.23538937
   0.44444450  0.22222222  0.07982145
   0.44263202  0.22359951  0.23588465
   0.44444450  0.55555561  0.07982145
   0.44081606  0.55463101  0.23479980
   0.44444451  0.88888894  0.07982145
   0.44065093  0.88297739  0.23655460
   0.77777779  0.22222222  0.07982145
   0.77082148  0.22008206  0.23480151
   0.77777781  0.55555561  0.07982145
   0.76733451  0.54994421  0.24155497
   0.77777784  0.88888894  0.07982145
   0.77492696  0.88445031  0.24079821
   0.99539299  0.00482879  0.39593905
   0.26723437  0.97189907  0.41554480
   0.90951261  0.23846037  0.41532082
   0.62663325  0.35997777  0.38900865
   0.62560311  0.63201714  0.38797327
   0.36394281  0.66756506  0.39212692
   0.97532284  0.08784288  0.40862463
   0.08908999  0.00626146  0.40949018
   0.36736136  0.07513338  0.41151651
   0.24474148  0.92155124  0.38793614
   0.00646258  0.34507691  0.41263589
   0.86015069  0.21854237  0.38752717
   0.62599464  0.46809498  0.39272592
   0.70471823  0.35932960  0.40826925
   0.71746105  0.71137708  0.40401913
   0.42739146  0.54918500  0.32175810
   0.36891091  0.75289025  0.40963059
   0.46510821  0.65866868  0.39637768
 
 position of ions in cartesian coordinates  (Angst):
   0.00000000  0.00000000  0.00000000
   4.75585240  8.26293650  5.16785494
   9.51902715  0.02952446 10.80540526
  -1.59262550  2.75850844  0.00000000
   7.94553080  2.76124333  5.13566168
   7.84661510  2.74476745 10.15595145
  -3.18525100  5.51701689  0.00000000
   6.34376878  5.50978000  5.15380156
   6.32311778  5.56951753 10.27454330
   3.18525100  0.00000000  0.00000000
  -1.61213984  8.26388282  5.13955875
  -1.66388466  8.25513539 10.12786956
   1.59262550  2.75850844  0.00000000
   1.57593168  2.74228959  5.11904094
   1.48404995  2.66049056 10.15147339
  -0.00000001  5.51701689  0.00000000
  -0.02651337  5.51278597  5.15878007
  -0.19363399  5.52514526 10.76435894
   6.37050200  0.00000000  0.00000000
   1.58365457  8.25633625  5.14822963
   6.30652601  0.05688160 10.24650500
   4.77787638  2.75850844  0.00000000
   4.75260137  2.76850865  5.17783383
   4.74451856  2.66587665 10.65923881
   3.18525100  5.51701689  0.00000000
   3.18582484  5.51526999  5.18558950
   3.11442534  5.57598172 10.67668212
   0.00000017  1.83900547  2.60418248
  -0.05464641  1.81185156  7.68288172
  -1.59262550  4.59751415  2.60418248
  -1.60679167  4.61498338  7.72609063
  -3.18525076  7.35602236  2.60418248
  -3.24406537  7.34429295  7.67960050
   3.18525147  1.83900547  2.60418248
   3.16135131  1.85040327  7.69575928
   1.59262574  4.59751415  2.60418248
   1.56237083  4.58986263  7.66036581
   0.00000039  7.35602236  2.60418248
  -0.00800545  7.30710112  7.71761641
   6.37050200  1.83900547  2.60418248
   6.31425457  1.82129450  7.66042179
   4.77787638  4.59751415  2.60418248
   4.70489342  4.55107688  7.88075400
   3.18525124  7.35602236  2.60418248
   3.17921613  7.31929036  7.85606448
   9.48865792  0.03996075 12.91754912
  -2.08998803  8.04297470 13.55718880
   7.55174346  1.97338463 13.54988131
   4.26802315  2.97900488 12.69144417
   2.95840887  5.23027345 12.65766493
   0.28820421  5.52445108 12.79317830
   8.90024154  0.72694591 13.33141746
   0.82140540  0.05181687 13.35965625
   3.15143634  0.62176811 13.42576541
  -2.06436879  7.62631997 12.65645349
  -1.58697997  2.85569249 13.46228541
   7.17521894  1.80855273 12.64311092
   3.74535009  3.87373151 12.81272051
   5.01728079  2.97364093 13.31982319
   3.45700867  5.88701855 13.18116259
   1.46010913  4.54479397 10.49738865
  -0.07199504  6.23056178 13.36423696
   1.29742152  5.45082886 12.93185962
 


--------------------------------------------------------------------------------------------------------


 k-point  1 :   0.0000 0.0000 0.0000  plane waves:   69403
 k-point  2 :   0.3333-0.0000 0.0000  plane waves:   69509
 k-point  3 :   0.0000 0.3333 0.0000  plane waves:   69509
 k-point  4 :   0.3333 0.3333 0.0000  plane waves:   69474
 k-point  5 :  -0.3333 0.3333 0.0000  plane waves:   69509

 maximum and minimum number of plane-waves per node :      2924     2870

 maximum number of plane-waves:     69509
 maximum index in each direction: 
   IXMAX=   18   IYMAX=   17   IZMAX=   60
   IXMIN=  -18   IYMIN=  -18   IZMIN=  -60


 real space projection operators:
  total allocation   :      22593.53 KBytes
  max/ min on nodes  :       1316.70        534.79


 parallel 3D FFT for wavefunctions:
    minimum data exchange during FFTs selected (reduces bandwidth)
 parallel 3D FFT for charge:
    minimum data exchange during FFTs selected (reduces bandwidth)


 total amount of memory used by VASP MPI-rank0    62229. kBytes
=======================================================================

   base      :      30000. kBytes
   nonlr-proj:       6326. kBytes
   fftplans  :       6459. kBytes
   grid      :      11407. kBytes
   one-center:         24. kBytes
   wavefun   :       8013. kBytes
 
     INWAV:  cpu time    0.0001: real time    0.0004
 Broyden mixing: mesh for mixing (old mesh)
   NGX = 35   NGY = 35   NGZ =121
  (NGX  =144   NGY  =144   NGZ  =500)
  gives a total of 148225 points

 initial charge density was supplied:
 charge density of overlapping atoms calculated
 number of electron     138.0000000 magnetization 
 keeping initial charge density in first step


--------------------------------------------------------------------------------------------------------


 Maximum index for non-local projection operator          298
 Maximum index for augmentation-charges          837 (set IRDMAX)


--------------------------------------------------------------------------------------------------------


 First call to EWALD:  gamma=   0.129
 Maximum number of real-space cells 4x 4x 1
 Maximum number of reciprocal cells 2x 2x 6

    FEWALD:  cpu time    0.0020: real time    0.0020


--------------------------------------- Iteration      1(   1)  ---------------------------------------


vdW kernel read from vdw_kernel.bindat
  0.0000  0.2424  0.5071  0.7962  1.1119  1.4567  1.8333  2.2446  2.6937  3.1842
  3.7199  4.3049  4.9438  5.6415  6.4036  7.2358  8.1446  9.1372 10.2212 11.4050
 12.6979 14.1099 15.6519 17.3360 19.1751 21.1837 23.3773 25.7729 28.3892 31.2465
 34.3669 37.7748 41.4965 45.5611 50.0000
 
    POTLOK:  cpu time    5.7577: real time    5.9319
    SETDIJ:  cpu time    0.1350: real time    0.1352
    EDDIAG:  cpu time    0.4798: real time    0.4815
  RMM-DIIS:  cpu time    1.0494: real time    1.0504
    ORTHCH:  cpu time    0.0710: real time    0.0711
 BZINTS: Fermi energy:  9.560437;138.000000 electrons
         Band energy: 211.630027;  BLOECHL correction: -0.165843
       DOS:  cpu time    0.0029: real time    0.0029
    --------------------------------------------
      LOOP:  cpu time    7.4959: real time    7.6730

 eigenvalue-minimisations  :   510
 total energy-change (2. order) : 0.1240563E+04  (-0.2793241E+04)
 number of electron     138.0000000 magnetization 
 augmentation part      138.0000000 magnetization 

 DIPCOR: dipole corrections for dipol
 direction  3 min pos   356,
 dipolmoment           0.000000      0.000000     -0.000387 electrons x Angstroem
 Tr[quadrupol]     -1916.221829

 energy correction for charged system         0.000000 eV
 dipol+quadrupol energy correction           -0.000000 eV
 added-field ion interaction          0.003932 eV  (added to PSCEN)


 Free energy of the ion-electron system (eV)
  ---------------------------------------------------
  alpha Z        PSCENC =        63.16499471
  Ewald energy   TEWEN  =     12963.24845521
  -Hartree energ DENC   =    -16190.52581449
  -exchange      EXHF   =         0.00000000
  -V(xc)+E(xc)   XCENC  =     -2051.08778826
  PAW double counting   =      5135.15659847    -2719.01140655
  entropy T*S    EENTRO =         0.00000000
  eigenvalues    EBANDS =       211.63002672
  atomic energy  EATOM  =      3827.98814510
  Solvation  Ediel_sol  =         0.00000000
  ---------------------------------------------------
  free energy    TOTEN  =      1240.56321092 eV

  energy without entropy =     1240.56321092  energy(sigma->0) =     1240.56321092


--------------------------------------------------------------------------------------------------------




--------------------------------------- Iteration      1(   2)  ---------------------------------------


    EDDIAG:  cpu time    0.4894: real time    0.5086
  RMM-DIIS:  cpu time    1.0468: real time    1.0475
    ORTHCH:  cpu time    0.0739: real time    0.0739
 BZINTS: Fermi energy:  2.136983;138.000000 electrons
         Band energy:-484.233285;  BLOECHL correction: -0.320486
       DOS:  cpu time    0.0033: real time    0.0033
    --------------------------------------------
      LOOP:  cpu time    1.6133: real time    1.6332

 eigenvalue-minimisations  :   510
 total energy-change (2. order) :-0.6958633E+03  (-0.7546648E+03)
 number of electron     138.0000000 magnetization 
 augmentation part      138.0000000 magnetization 

 DIPCOR: dipole corrections for dipol
 direction  3 min pos   356,
 dipolmoment           0.000000      0.000000     -0.000387 electrons x Angstroem
 Tr[quadrupol]     -1916.221829

 energy correction for charged system         0.000000 eV
 dipol+quadrupol energy correction           -0.000000 eV
 added-field ion interaction          0.003932 eV  (added to PSCEN)


 Free energy of the ion-electron system (eV)
  ---------------------------------------------------
  alpha Z        PSCENC =        63.16499471
  Ewald energy   TEWEN  =     12963.24845521
  -Hartree energ DENC   =    -16190.52581449
  -exchange      EXHF   =         0.00000000
  -V(xc)+E(xc)   XCENC  =     -2051.08778826
  PAW double counting   =      5135.15659847    -2719.01140655
  entropy T*S    EENTRO =         0.00000000
  eigenvalues    EBANDS =      -484.23328461
  atomic energy  EATOM  =      3827.98814510
  Solvation  Ediel_sol  =         0.00000000
  ---------------------------------------------------
  free energy    TOTEN  =       544.69989959 eV

  energy without entropy =      544.69989959  energy(sigma->0) =      544.69989959


--------------------------------------------------------------------------------------------------------




--------------------------------------- Iteration      1(   3)  ---------------------------------------


    EDDIAG:  cpu time    0.4942: real time    0.5183
  RMM-DIIS:  cpu time    1.0600: real time    1.0606
    ORTHCH:  cpu time    0.0722: real time    0.0722
 BZINTS: Fermi energy:  0.387292;138.000000 electrons
         Band energy:-718.347091;  BLOECHL correction: -0.305143
       DOS:  cpu time    0.0032: real time    0.0032
    --------------------------------------------
      LOOP:  cpu time    1.6295: real time    1.6543

 eigenvalue-minimisations  :   510
 total energy-change (2. order) :-0.2341138E+03  (-0.2978879E+03)
 number of electron     138.0000000 magnetization 
 augmentation part      138.0000000 magnetization 

 DIPCOR: dipole corrections for dipol
 direction  3 min pos   356,
 dipolmoment           0.000000      0.000000     -0.000387 electrons x Angstroem
 Tr[quadrupol]     -1916.221829

 energy correction for charged system         0.000000 eV
 dipol+quadrupol energy correction           -0.000000 eV
 added-field ion interaction          0.003932 eV  (added to PSCEN)


 Free energy of the ion-electron system (eV)
  ---------------------------------------------------
  alpha Z        PSCENC =        63.16499471
  Ewald energy   TEWEN  =     12963.24845521
  -Hartree energ DENC   =    -16190.52581449
  -exchange      EXHF   =         0.00000000
  -V(xc)+E(xc)   XCENC  =     -2051.08778826
  PAW double counting   =      5135.15659847    -2719.01140655
  entropy T*S    EENTRO =         0.00000000
  eigenvalues    EBANDS =      -718.34709101
  atomic energy  EATOM  =      3827.98814510
  Solvation  Ediel_sol  =         0.00000000
  ---------------------------------------------------
  free energy    TOTEN  =       310.58609319 eV

  energy without entropy =      310.58609319  energy(sigma->0) =      310.58609319


--------------------------------------------------------------------------------------------------------




--------------------------------------- Iteration      1(   4)  ---------------------------------------


    EDDIAG:  cpu time    0.4891: real time    0.5122
  RMM-DIIS:  cpu time    1.0557: real time    1.0568
    ORTHCH:  cpu time    0.0721: real time    0.0721
 BZINTS: Fermi energy: -0.652759;138.000000 electrons
         Band energy:-889.513030;  BLOECHL correction: -0.072462
       DOS:  cpu time    0.0028: real time    0.0028
    --------------------------------------------
      LOOP:  cpu time    1.6198: real time    1.6440

 eigenvalue-minimisations  :   510
 total energy-change (2. order) :-0.1711659E+03  (-0.1472901E+03)
 number of electron     138.0000000 magnetization 
 augmentation part      138.0000000 magnetization 

 DIPCOR: dipole corrections for dipol
 direction  3 min pos   356,
 dipolmoment           0.000000      0.000000     -0.000387 electrons x Angstroem
 Tr[quadrupol]     -1916.221829

 energy correction for charged system         0.000000 eV
 dipol+quadrupol energy correction           -0.000000 eV
 added-field ion interaction          0.003932 eV  (added to PSCEN)


 Free energy of the ion-electron system (eV)
  ---------------------------------------------------
  alpha Z        PSCENC =        63.16499471
  Ewald energy   TEWEN  =     12963.24845521
  -Hartree energ DENC   =    -16190.52581449
  -exchange      EXHF   =         0.00000000
  -V(xc)+E(xc)   XCENC  =     -2051.08778826
  PAW double counting   =      5135.15659847    -2719.01140655
  entropy T*S    EENTRO =         0.00000000
  eigenvalues    EBANDS =      -889.51303035
  atomic energy  EATOM  =      3827.98814510
  Solvation  Ediel_sol  =         0.00000000
  ---------------------------------------------------
  free energy    TOTEN  =       139.42015385 eV

  energy without entropy =      139.42015385  energy(sigma->0) =      139.42015385


--------------------------------------------------------------------------------------------------------




--------------------------------------- Iteration      1(   5)  ---------------------------------------


    EDDIAG:  cpu time    0.4925: real time    0.5116
  RMM-DIIS:  cpu time    1.0554: real time    1.0578
    ORTHCH:  cpu time    0.0715: real time    0.0715
 BZINTS: Fermi energy: -1.326748;138.000000 electrons
         Band energy:***********;  BLOECHL correction: -0.196130
       DOS:  cpu time    0.0029: real time    0.0029
    --------------------------------------------
      LOOP:  cpu time    1.6223: real time    1.6438

 eigenvalue-minimisations  :   510
 total energy-change (2. order) :-0.1165829E+03  (-0.9266111E+02)
 number of electron     138.0000000 magnetization 
 augmentation part      138.0000000 magnetization 

 DIPCOR: dipole corrections for dipol
 direction  3 min pos   356,
 dipolmoment           0.000000      0.000000     -0.000387 electrons x Angstroem
 Tr[quadrupol]     -1916.221829

 energy correction for charged system         0.000000 eV
 dipol+quadrupol energy correction           -0.000000 eV
 added-field ion interaction          0.003932 eV  (added to PSCEN)


 Free energy of the ion-electron system (eV)
  ---------------------------------------------------
  alpha Z        PSCENC =        63.16499471
  Ewald energy   TEWEN  =     12963.24845521
  -Hartree energ DENC   =    -16190.52581449
  -exchange      EXHF   =         0.00000000
  -V(xc)+E(xc)   XCENC  =     -2051.08778826
  PAW double counting   =      5135.15659847    -2719.01140655
  entropy T*S    EENTRO =         0.00000000
  eigenvalues    EBANDS =     -1006.09596841
  atomic energy  EATOM  =      3827.98814510
  Solvation  Ediel_sol  =         0.00000000
  ---------------------------------------------------
  free energy    TOTEN  =        22.83721578 eV

  energy without entropy =       22.83721578  energy(sigma->0) =       22.83721578


--------------------------------------------------------------------------------------------------------




--------------------------------------- Iteration      1(   6)  ---------------------------------------


    EDDIAG:  cpu time    0.4947: real time    0.5117
  RMM-DIIS:  cpu time    1.0542: real time    1.0545
    ORTHCH:  cpu time    0.0719: real time    0.0719
 BZINTS: Fermi energy: -1.358946;138.000000 electrons
         Band energy:***********;  BLOECHL correction: -0.052067
       DOS:  cpu time    0.0031: real time    0.0031
    --------------------------------------------
      LOOP:  cpu time    1.6239: real time    1.6412

 eigenvalue-minimisations  :   510
 total energy-change (2. order) :-0.6537408E+02  (-0.4945246E+02)
 number of electron     138.0000000 magnetization 
 augmentation part      138.0000000 magnetization 

 DIPCOR: dipole corrections for dipol
 direction  3 min pos   356,
 dipolmoment           0.000000      0.000000     -0.000387 electrons x Angstroem
 Tr[quadrupol]     -1916.221829

 energy correction for charged system         0.000000 eV
 dipol+quadrupol energy correction           -0.000000 eV
 added-field ion interaction          0.003932 eV  (added to PSCEN)


 Free energy of the ion-electron system (eV)
  ---------------------------------------------------
  alpha Z        PSCENC =        63.16499471
  Ewald energy   TEWEN  =     12963.24845521
  -Hartree energ DENC   =    -16190.52581449
  -exchange      EXHF   =         0.00000000
  -V(xc)+E(xc)   XCENC  =     -2051.08778826
  PAW double counting   =      5135.15659847    -2719.01140655
  entropy T*S    EENTRO =         0.00000000
  eigenvalues    EBANDS =     -1071.47004696
  atomic energy  EATOM  =      3827.98814510
  Solvation  Ediel_sol  =         0.00000000
  ---------------------------------------------------
  free energy    TOTEN  =       -42.53686276 eV

  energy without entropy =      -42.53686276  energy(sigma->0) =      -42.53686276


--------------------------------------------------------------------------------------------------------




--------------------------------------- Iteration      1(   7)  ---------------------------------------


    EDDIAG:  cpu time    0.4846: real time    0.5100
  RMM-DIIS:  cpu time    1.0521: real time    1.0534
    ORTHCH:  cpu time    0.0720: real time    0.0721
 BZINTS: Fermi energy: -1.423843;138.000000 electrons
         Band energy:***********;  BLOECHL correction: -0.059456
       DOS:  cpu time    0.0029: real time    0.0030
    --------------------------------------------
      LOOP:  cpu time    1.6116: real time    1.6385

 eigenvalue-minimisations  :   510
 total energy-change (2. order) :-0.2783722E+02  (-0.2096643E+02)
 number of electron     138.0000000 magnetization 
 augmentation part      138.0000000 magnetization 

 DIPCOR: dipole corrections for dipol
 direction  3 min pos   356,
 dipolmoment           0.000000      0.000000     -0.000387 electrons x Angstroem
 Tr[quadrupol]     -1916.221829

 energy correction for charged system         0.000000 eV
 dipol+quadrupol energy correction           -0.000000 eV
 added-field ion interaction          0.003932 eV  (added to PSCEN)


 Free energy of the ion-electron system (eV)
  ---------------------------------------------------
  alpha Z        PSCENC =        63.16499471
  Ewald energy   TEWEN  =     12963.24845521
  -Hartree energ DENC   =    -16190.52581449
  -exchange      EXHF   =         0.00000000
  -V(xc)+E(xc)   XCENC  =     -2051.08778826
  PAW double counting   =      5135.15659847    -2719.01140655
  entropy T*S    EENTRO =         0.00000000
  eigenvalues    EBANDS =     -1099.30727036
  atomic energy  EATOM  =      3827.98814510
  Solvation  Ediel_sol  =         0.00000000
  ---------------------------------------------------
  free energy    TOTEN  =       -70.37408616 eV

  energy without entropy =      -70.37408616  energy(sigma->0) =      -70.37408616


--------------------------------------------------------------------------------------------------------




--------------------------------------- Iteration      1(   8)  ---------------------------------------


    EDDIAG:  cpu time    0.4868: real time    0.5083
  RMM-DIIS:  cpu time    1.0529: real time    1.0532
    ORTHCH:  cpu time    0.0723: real time    0.0723
 BZINTS: Fermi energy: -1.467503;138.000000 electrons
         Band energy:***********;  BLOECHL correction: -0.072993
       DOS:  cpu time    0.0029: real time    0.0029
    --------------------------------------------
      LOOP:  cpu time    1.6149: real time    1.6367

 eigenvalue-minimisations  :   510
 total energy-change (2. order) :-0.7865305E+01  (-0.6256621E+01)
 number of electron     138.0000000 magnetization 
 augmentation part      138.0000000 magnetization 

 DIPCOR: dipole corrections for dipol
 direction  3 min pos   356,
 dipolmoment           0.000000      0.000000     -0.000387 electrons x Angstroem
 Tr[quadrupol]     -1916.221829

 energy correction for charged system         0.000000 eV
 dipol+quadrupol energy correction           -0.000000 eV
 added-field ion interaction          0.003932 eV  (added to PSCEN)


 Free energy of the ion-electron system (eV)
  ---------------------------------------------------
  alpha Z        PSCENC =        63.16499471
  Ewald energy   TEWEN  =     12963.24845521
  -Hartree energ DENC   =    -16190.52581449
  -exchange      EXHF   =         0.00000000
  -V(xc)+E(xc)   XCENC  =     -2051.08778826
  PAW double counting   =      5135.15659847    -2719.01140655
  entropy T*S    EENTRO =         0.00000000
  eigenvalues    EBANDS =     -1107.17257539
  atomic energy  EATOM  =      3827.98814510
  Solvation  Ediel_sol  =         0.00000000
  ---------------------------------------------------
  free energy    TOTEN  =       -78.23939119 eV

  energy without entropy =      -78.23939119  energy(sigma->0) =      -78.23939119


--------------------------------------------------------------------------------------------------------




--------------------------------------- Iteration      1(   9)  ---------------------------------------


    EDDIAG:  cpu time    0.4867: real time    0.5103
  RMM-DIIS:  cpu time    2.7316: real time    2.7328
    ORTHCH:  cpu time    0.0716: real time    0.0716
 BZINTS: Fermi energy: -1.505245;138.000000 electrons
         Band energy:***********;  BLOECHL correction: -0.069754
       DOS:  cpu time    0.0028: real time    0.0028
    --------------------------------------------
      LOOP:  cpu time    3.2926: real time    3.3175

 eigenvalue-minimisations  :  1487
 total energy-change (2. order) :-0.2376101E+01  (-0.2264976E+01)
 number of electron     138.0000000 magnetization 
 augmentation part      138.0000000 magnetization 

 DIPCOR: dipole corrections for dipol
 direction  3 min pos   356,
 dipolmoment           0.000000      0.000000     -0.000387 electrons x Angstroem
 Tr[quadrupol]     -1916.221829

 energy correction for charged system         0.000000 eV
 dipol+quadrupol energy correction           -0.000000 eV
 added-field ion interaction          0.003932 eV  (added to PSCEN)


 Free energy of the ion-electron system (eV)
  ---------------------------------------------------
  alpha Z        PSCENC =        63.16499471
  Ewald energy   TEWEN  =     12963.24845521
  -Hartree energ DENC   =    -16190.52581449
  -exchange      EXHF   =         0.00000000
  -V(xc)+E(xc)   XCENC  =     -2051.08778826
  PAW double counting   =      5135.15659847    -2719.01140655
  entropy T*S    EENTRO =         0.00000000
  eigenvalues    EBANDS =     -1109.54867665
  atomic energy  EATOM  =      3827.98814510
  Solvation  Ediel_sol  =         0.00000000
  ---------------------------------------------------
  free energy    TOTEN  =       -80.61549245 eV

  energy without entropy =      -80.61549245  energy(sigma->0) =      -80.61549245


--------------------------------------------------------------------------------------------------------




--------------------------------------- Iteration      1(  10)  ---------------------------------------


    EDDIAG:  cpu time    0.4874: real time    0.5087
  RMM-DIIS:  cpu time    3.1970: real time    3.2000
    ORTHCH:  cpu time    0.0719: real time    0.0719
 BZINTS: Fermi energy: -1.507087;138.000000 electrons
         Band energy:***********;  BLOECHL correction: -0.064892
       DOS:  cpu time    0.0029: real time    0.0029
    --------------------------------------------
      LOOP:  cpu time    3.7591: real time    3.7836

 eigenvalue-minimisations  :  1771
 total energy-change (2. order) :-0.2891644E+00  (-0.3059192E+00)
 number of electron     138.0000000 magnetization 
 augmentation part      138.0000000 magnetization 

 DIPCOR: dipole corrections for dipol
 direction  3 min pos   356,
 dipolmoment           0.000000      0.000000     -0.000387 electrons x Angstroem
 Tr[quadrupol]     -1916.221829

 energy correction for charged system         0.000000 eV
 dipol+quadrupol energy correction           -0.000000 eV
 added-field ion interaction          0.003932 eV  (added to PSCEN)


 Free energy of the ion-electron system (eV)
  ---------------------------------------------------
  alpha Z        PSCENC =        63.16499471
  Ewald energy   TEWEN  =     12963.24845521
  -Hartree energ DENC   =    -16190.52581449
  -exchange      EXHF   =         0.00000000
  -V(xc)+E(xc)   XCENC  =     -2051.08778826
  PAW double counting   =      5135.15659847    -2719.01140655
  entropy T*S    EENTRO =         0.00000000
  eigenvalues    EBANDS =     -1109.83784102
  atomic energy  EATOM  =      3827.98814510
  Solvation  Ediel_sol  =         0.00000000
  ---------------------------------------------------
  free energy    TOTEN  =       -80.90465682 eV

  energy without entropy =      -80.90465682  energy(sigma->0) =      -80.90465682


--------------------------------------------------------------------------------------------------------




--------------------------------------- Iteration      1(  11)  ---------------------------------------


    EDDIAG:  cpu time    0.4945: real time    0.5123
  RMM-DIIS:  cpu time    3.0991: real time    3.1002
    ORTHCH:  cpu time    0.0726: real time    0.0726
 BZINTS: Fermi energy: -1.507578;138.000000 electrons
         Band energy:***********;  BLOECHL correction: -0.064678
       DOS:  cpu time    0.0030: real time    0.0030
    --------------------------------------------
      LOOP:  cpu time    3.6692: real time    3.6881

 eigenvalue-minimisations  :  1712
 total energy-change (2. order) : 0.9484158E-04  (-0.1593688E-01)
 number of electron     138.0000000 magnetization 
 augmentation part      138.0000000 magnetization 

 DIPCOR: dipole corrections for dipol
 direction  3 min pos   356,
 dipolmoment           0.000000      0.000000     -0.000387 electrons x Angstroem
 Tr[quadrupol]     -1916.221829

 energy correction for charged system         0.000000 eV
 dipol+quadrupol energy correction           -0.000000 eV
 added-field ion interaction          0.003932 eV  (added to PSCEN)


 Free energy of the ion-electron system (eV)
  ---------------------------------------------------
  alpha Z        PSCENC =        63.16499471
  Ewald energy   TEWEN  =     12963.24845521
  -Hartree energ DENC   =    -16190.52581449
  -exchange      EXHF   =         0.00000000
  -V(xc)+E(xc)   XCENC  =     -2051.08778826
  PAW double counting   =      5135.15659847    -2719.01140655
  entropy T*S    EENTRO =         0.00000000
  eigenvalues    EBANDS =     -1109.83774618
  atomic energy  EATOM  =      3827.98814510
  Solvation  Ediel_sol  =         0.00000000
  ---------------------------------------------------
  free energy    TOTEN  =       -80.90456198 eV

  energy without entropy =      -80.90456198  energy(sigma->0) =      -80.90456198


--------------------------------------------------------------------------------------------------------




--------------------------------------- Iteration      1(  12)  ---------------------------------------


    EDDIAG:  cpu time    0.5801: real time    0.6049
  RMM-DIIS:  cpu time    3.3186: real time    3.3219
    ORTHCH:  cpu time    0.0720: real time    0.0720
 BZINTS: Fermi energy: -1.507648;138.000000 electrons
         Band energy:***********;  BLOECHL correction: -0.064637
       DOS:  cpu time    0.0029: real time    0.0029
    CHARGE:  cpu time    0.1299: real time    0.1299
    MIXING:  cpu time    0.0041: real time    0.0041
    --------------------------------------------
      LOOP:  cpu time    4.1074: real time    4.1357

 eigenvalue-minimisations  :  1810
 total energy-change (2. order) :-0.2540172E-02  (-0.3393607E-02)
 number of electron     138.0000002 magnetization 
 augmentation part        5.2688348 magnetization 

 DIPCOR: dipole corrections for dipol
 direction  3 min pos   356,
 dipolmoment           0.000000      0.000000     -0.000387 electrons x Angstroem
 Tr[quadrupol]     -1916.221829

 energy correction for charged system         0.000000 eV
 dipol+quadrupol energy correction           -0.000000 eV
 added-field ion interaction          0.003932 eV  (added to PSCEN)


 Broyden mixing:
  rms(total) = 0.20164E+01    rms(broyden)= 0.20153E+01
  rms(prec ) = 0.21086E+01
  weight for this iteration     100.00

 Free energy of the ion-electron system (eV)
  ---------------------------------------------------
  alpha Z        PSCENC =        63.16499471
  Ewald energy   TEWEN  =     12963.24845521
  -Hartree energ DENC   =    -16190.52581449
  -exchange      EXHF   =         0.00000000
  -V(xc)+E(xc)   XCENC  =     -2051.08778826
  PAW double counting   =      5135.15659847    -2719.01140655
  entropy T*S    EENTRO =         0.00000000
  eigenvalues    EBANDS =     -1109.84028635
  atomic energy  EATOM  =      3827.98814510
  Solvation  Ediel_sol  =         0.00000000
  ---------------------------------------------------
  free energy    TOTEN  =       -80.90710215 eV

  energy without entropy =      -80.90710215  energy(sigma->0) =      -80.90710215


--------------------------------------------------------------------------------------------------------




--------------------------------------- Iteration      1(  13)  ---------------------------------------


    POTLOK:  cpu time    4.9338: real time    4.9617
    SETDIJ:  cpu time    0.1343: real time    0.1344
    EDDIAG:  cpu time    0.4770: real time    0.4775
  RMM-DIIS:  cpu time    2.5751: real time    2.5762
    ORTHCH:  cpu time    0.0698: real time    0.0698
 BZINTS: Fermi energy: -1.170861;138.000000 electrons
         Band energy:-923.434535;  BLOECHL correction: -0.075355
       DOS:  cpu time    0.0029: real time    0.0029
    CHARGE:  cpu time    0.1273: real time    0.1273
    MIXING:  cpu time    0.0035: real time    0.0035
    --------------------------------------------
      LOOP:  cpu time    8.3237: real time    8.3533

 eigenvalue-minimisations  :  1425
 total energy-change (2. order) : 0.9942590E+01  (-0.6118453E+01)
 number of electron     138.0000002 magnetization 
 augmentation part        4.4824385 magnetization 

 DIPCOR: dipole corrections for dipol
 direction  3 min pos   360,
 dipolmoment           0.000000      0.000000      0.571982 electrons x Angstroem
 Tr[quadrupol]     -1927.227963

 energy correction for charged system         0.000000 eV
 dipol+quadrupol energy correction           -0.011473 eV
 added-field ion interaction         -4.372218 eV  (added to PSCEN)


 Broyden mixing:
  rms(total) = 0.78698E+00    rms(broyden)= 0.78646E+00
  rms(prec ) = 0.10117E+01
  weight for this iteration     100.00

 eigenvalues of (default mixing * dielectric matrix)
  average eigenvalue GAMMA=   0.9495
  0.9495

 Free energy of the ion-electron system (eV)
  ---------------------------------------------------
  alpha Z        PSCENC =        58.77737228
  Ewald energy   TEWEN  =     12963.24845521
  -Hartree energ DENC   =    -16369.98050564
  -exchange      EXHF   =         0.00000000
  -V(xc)+E(xc)   XCENC  =     -2041.11922070
  PAW double counting   =      5557.74644547    -3144.19066947
  entropy T*S    EENTRO =         0.00000000
  eigenvalues    EBANDS =      -923.43453490
  atomic energy  EATOM  =      3827.98814510
  Solvation  Ediel_sol  =         0.00000000
  ---------------------------------------------------
  free energy    TOTEN  =       -70.96451264 eV

  energy without entropy =      -70.96451264  energy(sigma->0) =      -70.96451264


--------------------------------------------------------------------------------------------------------




--------------------------------------- Iteration      1(  14)  ---------------------------------------


    POTLOK:  cpu time    4.9244: real time    4.9516
    SETDIJ:  cpu time    0.1342: real time    0.1342
    EDDIAG:  cpu time    0.4724: real time    0.4730
  RMM-DIIS:  cpu time    2.9433: real time    2.9446
    ORTHCH:  cpu time    0.0709: real time    0.0709
 BZINTS: Fermi energy: -0.902689;138.000000 electrons
         Band energy:***********;  BLOECHL correction: -0.019936
       DOS:  cpu time    0.0030: real time    0.0030
    CHARGE:  cpu time    0.1215: real time    0.1215
    MIXING:  cpu time    0.0051: real time    0.0051
    --------------------------------------------
      LOOP:  cpu time    8.6748: real time    8.7039

 eigenvalue-minimisations  :  1616
 total energy-change (2. order) :-0.2509306E+02  (-0.1320584E+01)
 number of electron     138.0000002 magnetization 
 augmentation part        4.4561245 magnetization 

 DIPCOR: dipole corrections for dipol
 direction  3 min pos   374,
 dipolmoment           0.000000      0.000000     -1.993158 electrons x Angstroem
 Tr[quadrupol]     -1913.307801

 energy correction for charged system         0.000000 eV
 dipol+quadrupol energy correction           -0.139316 eV
 added-field ion interaction         -2.387468 eV  (added to PSCEN)


 Broyden mixing:
  rms(total) = 0.10624E+01    rms(broyden)= 0.10624E+01
  rms(prec ) = 0.31281E+01
  weight for this iteration     100.00

 eigenvalues of (default mixing * dielectric matrix)
  average eigenvalue GAMMA=   0.7341
  0.9598  0.5083

 Free energy of the ion-electron system (eV)
  ---------------------------------------------------
  alpha Z        PSCENC =        60.63427894
  Ewald energy   TEWEN  =     12963.24845521
  -Hartree energ DENC   =    -16317.20953541
  -exchange      EXHF   =         0.00000000
  -V(xc)+E(xc)   XCENC  =     -2039.13722963
  PAW double counting   =      5713.92667674    -3300.39781756
  entropy T*S    EENTRO =         0.00000000
  eigenvalues    EBANDS =     -1005.11054949
  atomic energy  EATOM  =      3827.98814510
  Solvation  Ediel_sol  =         0.00000000
  ---------------------------------------------------
  free energy    TOTEN  =       -96.05757608 eV

  energy without entropy =      -96.05757608  energy(sigma->0) =      -96.05757608


--------------------------------------------------------------------------------------------------------




--------------------------------------- Iteration      1(  15)  ---------------------------------------


    POTLOK:  cpu time    4.9231: real time    4.9499
    SETDIJ:  cpu time    0.1338: real time    0.1338
    EDDIAG:  cpu time    0.4758: real time    0.4763
  RMM-DIIS:  cpu time    2.6385: real time    2.6399
    ORTHCH:  cpu time    0.0701: real time    0.0701
 BZINTS: Fermi energy: -1.243211;138.000000 electrons
         Band energy:-921.700500;  BLOECHL correction: -0.085374
       DOS:  cpu time    0.0031: real time    0.0031
    CHARGE:  cpu time    0.1278: real time    0.1278
    MIXING:  cpu time    0.0036: real time    0.0036
    --------------------------------------------
      LOOP:  cpu time    8.3758: real time    8.4044

 eigenvalue-minimisations  :  1438
 total energy-change (2. order) : 0.2643335E+02  (-0.3171618E+00)
 number of electron     138.0000002 magnetization 
 augmentation part        4.3878274 magnetization 

 DIPCOR: dipole corrections for dipol
 direction  3 min pos   384,
 dipolmoment           0.000000      0.000000      0.135354 electrons x Angstroem
 Tr[quadrupol]     -1925.127225

 energy correction for charged system         0.000000 eV
 dipol+quadrupol energy correction           -0.000642 eV
 added-field ion interaction          1.016969 eV  (added to PSCEN)


 Broyden mixing:
  rms(total) = 0.49531E+00    rms(broyden)= 0.49528E+00
  rms(prec ) = 0.55271E+00
  weight for this iteration     100.00

 eigenvalues of (default mixing * dielectric matrix)
  average eigenvalue GAMMA=   1.1082
  1.9897  1.1860  0.1489

 Free energy of the ion-electron system (eV)
  ---------------------------------------------------
  alpha Z        PSCENC =        64.17738976
  Ewald energy   TEWEN  =     12963.24845521
  -Hartree energ DENC   =    -16378.21780980
  -exchange      EXHF   =         0.00000000
  -V(xc)+E(xc)   XCENC  =     -2038.65747725
  PAW double counting   =      5752.41007609    -3338.87250254
  entropy T*S    EENTRO =         0.00000000
  eigenvalues    EBANDS =      -921.70049962
  atomic energy  EATOM  =      3827.98814510
  Solvation  Ediel_sol  =         0.00000000
  ---------------------------------------------------
  free energy    TOTEN  =       -69.62422304 eV

  energy without entropy =      -69.62422304  energy(sigma->0) =      -69.62422304


--------------------------------------------------------------------------------------------------------




--------------------------------------- Iteration      1(  16)  ---------------------------------------


    POTLOK:  cpu time    4.9263: real time    4.9526
    SETDIJ:  cpu time    0.1349: real time    0.1350
    EDDIAG:  cpu time    0.4752: real time    0.4757
  RMM-DIIS:  cpu time    3.0535: real time    3.0589
    ORTHCH:  cpu time    0.0708: real time    0.0708
 BZINTS: Fermi energy: -0.971354;138.000000 electrons
         Band energy:-902.262622;  BLOECHL correction: -0.082129
       DOS:  cpu time    0.0030: real time    0.0030
    CHARGE:  cpu time    0.1264: real time    0.1266
    MIXING:  cpu time    0.0044: real time    0.0043
    --------------------------------------------
      LOOP:  cpu time    8.7944: real time    8.8269

 eigenvalue-minimisations  :  1589
 total energy-change (2. order) :-0.7935188E-02  (-0.1415010E+00)
 number of electron     138.0000002 magnetization 
 augmentation part        4.4427794 magnetization 

 DIPCOR: dipole corrections for dipol
 direction  3 min pos   370,
 dipolmoment           0.000000      0.000000      0.163495 electrons x Angstroem
 Tr[quadrupol]     -1930.180541

 energy correction for charged system         0.000000 eV
 dipol+quadrupol energy correction           -0.000937 eV
 added-field ion interaction         -0.217186 eV  (added to PSCEN)


 Broyden mixing:
  rms(total) = 0.25305E+00    rms(broyden)= 0.25304E+00
  rms(prec ) = 0.40582E+00
  weight for this iteration     100.00

 eigenvalues of (default mixing * dielectric matrix)
  average eigenvalue GAMMA=   1.0451
  2.3872  0.1532  0.6157  1.0243

 Free energy of the ion-electron system (eV)
  ---------------------------------------------------
  alpha Z        PSCENC =        62.94293932
  Ewald energy   TEWEN  =     12963.24845521
  -Hartree energ DENC   =    -16397.84432004
  -exchange      EXHF   =         0.00000000
  -V(xc)+E(xc)   XCENC  =     -2037.41483712
  PAW double counting   =      5859.52388993    -3445.81380884
  entropy T*S    EENTRO =         0.00000000
  eigenvalues    EBANDS =      -902.26262180
  atomic energy  EATOM  =      3827.98814510
  Solvation  Ediel_sol  =         0.00000000
  ---------------------------------------------------
  free energy    TOTEN  =       -69.63215823 eV

  energy without entropy =      -69.63215823  energy(sigma->0) =      -69.63215823


--------------------------------------------------------------------------------------------------------




--------------------------------------- Iteration      1(  17)  ---------------------------------------


    POTLOK:  cpu time    4.9478: real time    4.9662
    SETDIJ:  cpu time    0.1339: real time    0.1339
    EDDIAG:  cpu time    0.4735: real time    0.4740
  RMM-DIIS:  cpu time    2.4430: real time    2.4438
    ORTHCH:  cpu time    0.0705: real time    0.0705
 BZINTS: Fermi energy: -0.949849;138.000000 electrons
         Band energy:-898.229354;  BLOECHL correction: -0.081861
       DOS:  cpu time    0.0031: real time    0.0031
    CHARGE:  cpu time    0.1240: real time    0.1240
    MIXING:  cpu time    0.0040: real time    0.0040
    --------------------------------------------
      LOOP:  cpu time    8.1998: real time    8.2196

 eigenvalue-minimisations  :  1347
 total energy-change (2. order) : 0.3388547E+00  (-0.4141596E-01)
 number of electron     138.0000002 magnetization 
 augmentation part        4.4583240 magnetization 

 DIPCOR: dipole corrections for dipol
 direction  3 min pos   380,
 dipolmoment           0.000000      0.000000     -0.174117 electrons x Angstroem
 Tr[quadrupol]     -1928.572412

 energy correction for charged system         0.000000 eV
[...]
  0.013  -0.001  -0.000   0.054   0.001   0.000  -0.003  -0.000  -0.000   0.000   0.011  -0.000  -0.000
  0.002   0.000  -0.002   0.001   0.076   0.000  -0.000  -0.004  -0.003  -0.000   0.000   0.004   0.000
  0.000   0.000  -0.004   0.000   0.000   0.000  -0.000  -0.000  -0.000  -0.000   0.000   0.000   0.000
 -0.003   0.000   0.000  -0.003  -0.000  -0.000   0.000   0.000   0.000  -0.000  -0.001   0.000   0.000
 -0.000  -0.000   0.000  -0.000  -0.004  -0.000   0.000   0.000   0.000   0.000   0.000  -0.000  -0.000
  0.002   0.000   0.000  -0.000  -0.003  -0.000   0.000   0.000   0.003   0.000   0.000  -0.000   0.000
  0.000  -0.000   0.004   0.000  -0.000  -0.000  -0.000   0.000   0.000   0.002   0.000   0.000  -0.000
 -0.022   0.000  -0.000   0.011   0.000   0.000  -0.001   0.000   0.000   0.000   0.004  -0.000  -0.000
  0.000   0.000  -0.000  -0.000   0.004   0.000   0.000  -0.000  -0.000   0.000  -0.000   0.002   0.000
 -0.001  -0.000  -0.003  -0.000   0.000   0.000   0.000  -0.000   0.000  -0.000  -0.000   0.000   0.003


------------------------ aborting loop because EDIFF is reached ----------------------------------------


    CHARGE:  cpu time    0.3592: real time    0.3594
    FORLOC:  cpu time    0.0394: real time    0.0394
    FORNL :  cpu time    0.6948: real time    0.6949
    STRESS:  cpu time    2.0899: real time    2.0908
    FORCOR:  cpu time    4.9495: real time    4.9536
    FORHAR:  cpu time    0.0757: real time    0.0757
    MIXING:  cpu time    0.0076: real time    0.0076
    OFIELD:  cpu time    0.0001: real time    0.0001

  FORCE on cell =-STRESS in cart. coord.  units (eV):
  Direction    XX          YY          ZZ          XY          YZ          ZX
  --------------------------------------------------------------------------------------
  Alpha Z    63.16106    63.16106    63.16106
  Ewald   14570.53653 14314.02551-15921.32343  -234.17657   156.62868    89.53576
  Hartree 15455.24462 15259.45299-14287.72324  -175.89976    44.63392    21.56786
  E(xc)    -445.60649  -445.71719  -444.68293    -0.18137     0.60924     0.36136
  Local  -30989.72701-30536.34482 29245.35528   410.61916  -162.51303   -85.54869
  n-local   119.41256   119.36727   111.54910    -0.15607     0.77958     0.55991
  augment    44.73465    44.60072    45.51108    -0.08282    -2.55819    -1.69038
  Kinetic  1172.94451  1172.74536  1188.62591     0.65669   -37.44126   -23.96903
  Fock        0.00000     0.00000     0.00000     0.00000     0.00000     0.00000
  -------------------------------------------------------------------------------------
  Total      -9.29957    -8.70910     0.47285     0.77926     0.13895     0.81678
  in kB      -5.77512    -5.40843     0.29364     0.48393     0.08629     0.50723
  external pressure =       -3.63 kB  Pullay stress =        0.00 kB


 VOLUME and BASIS-vectors are now :
 -----------------------------------------------------------------------------
  energy-cutoff  :      520.00
  volume of cell :     2579.96
      direct lattice vectors                 reciprocal lattice vectors
     9.555752754  0.000000000  0.000000000     0.104649003  0.060419130  0.000000000
    -4.777876377  8.275524637  0.000000000     0.000000000  0.120838260  0.000000000
     0.000000000  0.000000000 32.625095367     0.000000000  0.000000000  0.030651251

  length of vectors
     9.555752754  9.555752754 32.625095367     0.120838260  0.120838260  0.030651251


 FORCES acting on ions
    electron-ion (+dipol)            ewald-force                    non-local-force                 convergence-correction
 -----------------------------------------------------------------------------------------------
   0.921E-01 -.177E-01 0.122E+03   -.111E-01 -.153E-01 -.121E+03   -.583E-01 0.271E-01 -.782E+00   0.131E-05 -.179E-07 0.385E-04
   0.416E+00 0.110E+00 0.564E+02   -.300E+00 -.176E+00 -.565E+02   -.946E-01 0.602E-01 0.775E-01   0.560E-06 0.121E-06 0.138E-03
   -.137E+01 -.967E+00 0.540E+01   0.150E+01 0.951E+00 -.569E+01   -.116E+00 0.135E-01 0.291E+00   -.314E-06 -.226E-05 -.774E-04
   -.532E-01 -.143E-01 0.122E+03   -.150E-01 -.372E-02 -.121E+03   0.215E-01 0.530E-03 -.865E+00   0.255E-05 0.696E-06 0.404E-04
   0.246E+00 0.150E-01 0.567E+02   -.240E+00 -.153E-01 -.567E+02   -.371E-02 0.245E-02 0.620E-01   0.211E-05 0.114E-05 0.136E-03
   0.453E+00 -.326E+01 -.110E+02   -.445E+00 0.326E+01 0.107E+02   -.489E-02 -.379E-02 0.342E+00   -.145E-05 0.122E-05 -.381E-04
   0.313E-01 0.815E-01 0.122E+03   -.125E-01 -.336E-02 -.121E+03   0.483E-02 -.512E-01 -.909E+00   0.531E-06 0.185E-05 0.398E-04
   0.173E+00 0.330E+00 0.561E+02   -.187E+00 -.227E+00 -.563E+02   0.368E-02 -.847E-01 0.143E+00   0.143E-05 0.107E-05 0.139E-03
   -.388E+01 0.214E+01 -.174E+02   0.389E+01 -.186E+01 0.169E+02   0.225E-02 -.254E+00 0.448E+00   0.157E-05 0.171E-05 -.459E-04
   -.463E-01 -.564E-01 0.122E+03   0.736E-02 -.292E-02 -.121E+03   0.225E-01 0.338E-01 -.874E+00   -.551E-06 -.827E-06 0.399E-04
   -.219E+00 0.208E-01 0.566E+02   0.142E+00 -.583E-01 -.567E+02   0.667E-01 0.329E-01 0.140E+00   0.508E-06 -.307E-06 0.139E-03
   -.160E+01 0.852E+00 -.840E+01   0.148E+01 -.102E+01 0.796E+01   0.106E+00 0.159E+00 0.461E+00   -.138E-05 -.236E-05 -.438E-04
   -.212E-02 0.148E-01 0.122E+03   0.863E-02 0.679E-02 -.121E+03   -.801E-02 -.145E-01 -.871E+00   -.600E-06 -.165E-05 0.398E-04
   0.627E-01 -.111E-01 0.572E+02   -.350E-01 -.408E-01 -.573E+02   -.194E-01 0.313E-01 0.412E-01   -.305E-06 0.124E-05 0.138E-03
   0.352E+01 0.782E+01 -.104E+02   -.371E+01 -.860E+01 0.966E+01   0.184E+00 0.771E+00 0.779E+00   -.354E-05 -.688E-05 -.393E-04
   -.354E-01 -.958E-02 0.122E+03   0.590E-02 0.878E-02 -.121E+03   0.180E-01 0.239E-02 -.760E+00   -.814E-06 0.134E-05 0.400E-04
   0.582E-01 -.608E-01 0.569E+02   -.989E-01 0.102E+00 -.569E+02   0.231E-01 -.231E-01 0.125E-01   0.107E-05 -.136E-06 0.136E-03
   0.187E+02 -.142E+01 0.135E+01   -.191E+02 0.155E+01 -.136E+01   0.370E+00 -.130E+00 0.217E-01   -.910E-05 0.277E-06 -.783E-04
   0.445E-02 0.657E-01 0.122E+03   0.383E-02 -.189E-02 -.121E+03   -.114E-01 -.117E-01 -.901E+00   -.762E-06 -.258E-05 0.403E-04
   -.208E+00 -.306E-01 0.565E+02   0.174E+00 0.160E-01 -.566E+02   0.294E-01 0.104E-01 0.108E+00   -.106E-05 -.220E-05 0.137E-03
   0.262E+01 -.228E+01 -.138E+02   -.250E+01 0.237E+01 0.134E+02   -.111E+00 -.817E-01 0.345E+00   0.822E-06 0.176E-05 -.445E-04
   0.598E-01 -.657E-01 0.122E+03   0.653E-02 0.557E-02 -.121E+03   -.173E-01 0.261E-01 -.814E+00   -.194E-05 0.104E-06 0.400E-04
   -.307E+00 -.143E+00 0.565E+02   0.278E+00 0.155E+00 -.565E+02   0.184E-01 -.654E-02 0.588E-01   -.183E-05 -.795E-06 0.137E-03
   -.104E+02 0.771E+01 0.484E+01   0.105E+02 -.791E+01 -.521E+01   -.141E+00 0.205E+00 0.383E+00   0.605E-05 -.355E-05 -.740E-04
   -.498E-01 -.235E-01 0.122E+03   0.670E-02 0.616E-02 -.121E+03   0.229E-01 0.147E-01 -.783E+00   0.293E-06 0.110E-05 0.395E-04
   -.280E+00 -.285E+00 0.564E+02   0.290E+00 0.259E+00 -.564E+02   0.798E-02 0.266E-01 0.363E-01   -.243E-05 -.328E-07 0.136E-03
   -.932E+01 -.114E+02 0.159E+02   0.945E+01 0.116E+02 -.148E+02   -.120E+00 -.262E+00 -.112E+01   0.651E-05 0.932E-05 -.735E-04
   0.147E+00 0.123E+00 0.898E+02   -.950E-01 -.116E+00 -.897E+02   -.469E-01 -.309E-01 -.383E-01   0.138E-06 0.136E-05 0.126E-03
   0.726E+00 0.989E+00 0.242E+02   -.708E+00 -.874E+00 -.243E+02   -.150E-01 -.123E+00 0.141E+00   0.168E-05 -.548E-07 0.938E-04
   0.127E+00 -.640E-01 0.897E+02   -.665E-01 0.433E-01 -.897E+02   -.477E-01 0.317E-01 -.137E-01   0.850E-06 0.562E-06 0.126E-03
   0.746E+00 -.161E+00 0.230E+02   -.749E+00 0.153E+00 -.231E+02   0.375E-02 0.146E-01 0.696E-01   -.350E-05 0.254E-05 0.935E-04
   0.401E-01 0.568E-01 0.897E+02   -.857E-01 -.570E-01 -.896E+02   0.695E-02 0.408E-02 -.758E-01   0.240E-05 0.472E-07 0.125E-03
   0.277E+00 0.218E+00 0.239E+02   -.272E+00 -.280E+00 -.239E+02   -.264E-01 0.643E-01 -.694E-02   0.328E-05 -.153E-05 0.973E-04
   -.211E+00 0.277E-01 0.898E+02   0.166E+00 0.160E-01 -.897E+02   0.365E-01 -.267E-01 -.283E-01   -.114E-05 -.174E-05 0.126E-03
   -.740E+00 0.979E+00 0.247E+02   0.672E+00 -.910E+00 -.249E+02   0.692E-01 -.500E-01 0.134E+00   -.211E-05 -.540E-05 0.928E-04
   -.629E-01 -.165E+00 0.897E+02   0.914E-01 0.160E+00 -.896E+02   -.197E-01 0.209E-01 -.432E-01   -.127E-05 -.118E-06 0.128E-03
   0.770E+00 -.586E+00 0.262E+02   -.666E+00 0.463E+00 -.268E+02   -.968E-01 0.119E+00 0.614E+00   -.811E-06 -.153E-05 0.896E-04
   -.422E-01 -.414E-01 0.897E+02   0.576E-01 0.547E-02 -.896E+02   -.200E-01 -.323E-03 -.655E-02   -.644E-06 0.727E-07 0.126E-03
   0.489E+00 -.200E+00 0.237E+02   -.424E+00 0.192E+00 -.238E+02   -.648E-01 0.643E-03 0.924E-01   -.330E-05 0.353E-05 0.930E-04
   0.122E+00 0.239E-01 0.896E+02   -.981E-01 -.858E-02 -.895E+02   -.374E-01 -.102E-01 -.471E-01   0.975E-06 -.134E-05 0.127E-03
   0.254E-01 -.307E+00 0.243E+02   0.581E-01 0.258E+00 -.243E+02   -.912E-01 0.537E-01 -.117E-01   0.378E-06 -.231E-05 0.969E-04
   0.298E-01 0.271E-01 0.896E+02   -.439E-01 -.589E-04 -.895E+02   -.248E-01 -.250E-01 0.491E-01   0.407E-06 0.738E-06 0.126E-03
   -.174E+01 -.642E-01 0.229E+02   0.166E+01 0.120E+00 -.230E+02   0.670E-01 -.616E-01 0.706E-01   0.451E-05 0.401E-05 0.878E-04
   -.631E-02 0.553E-01 0.896E+02   0.801E-02 -.699E-01 -.895E+02   0.113E-01 -.145E-01 0.311E-01   -.174E-05 0.416E-06 0.126E-03
   -.828E+00 -.104E+01 0.229E+02   0.722E+00 0.993E+00 -.231E+02   0.108E+00 0.500E-01 0.151E+00   0.267E-06 0.124E-05 0.891E-04
   0.142E+02 0.415E+02 -.257E+03   -.252E+02 -.659E+02 0.235E+03   0.110E+02 0.244E+02 0.223E+02   -.232E-04 -.383E-04 -.389E-03
   -.148E+02 0.332E+02 -.424E+03   -.132E+01 -.514E+02 0.460E+03   0.161E+02 0.182E+02 -.368E+02   -.591E-04 -.224E-04 -.191E-03
   0.300E+02 -.512E+01 -.420E+03   -.350E+02 -.210E+02 0.455E+03   0.501E+01 0.261E+02 -.349E+02   0.608E-05 -.435E-04 -.228E-03
   -.124E+02 0.688E+02 -.256E+03   -.387E+01 -.919E+02 0.235E+03   0.162E+02 0.231E+02 0.201E+02   -.173E-04 -.382E-04 -.355E-03
   0.274E+01 -.619E+01 -.270E+03   -.207E+02 -.152E+02 0.258E+03   0.179E+02 0.214E+02 0.119E+02   -.171E-04 0.120E-04 -.322E-03
   0.772E+02 0.326E+02 -.279E+03   -.922E+02 -.582E+02 0.260E+03   0.150E+02 0.255E+02 0.185E+02   -.159E-04 -.782E-04 -.370E-03
   0.348E+02 -.420E+02 -.878E+02   -.395E+02 0.472E+02 0.909E+02   0.470E+01 -.522E+01 -.313E+01   0.129E-05 -.398E-05 -.597E-04
   -.549E+02 -.112E+01 -.913E+02   0.619E+02 0.104E+01 0.947E+02   -.701E+01 0.784E-01 -.339E+01   -.803E-05 -.167E-05 -.595E-04
   -.399E+02 -.675E+02 -.524E+02   0.437E+02 0.747E+02 0.515E+02   -.384E+01 -.715E+01 0.893E+00   0.163E-05 0.919E-05 -.526E-04
   -.458E+01 0.379E+02 0.269E+02   0.468E+01 -.414E+02 -.337E+02   -.948E-01 0.340E+01 0.679E+01   -.673E-05 -.106E-04 -.758E-04
   -.335E+02 -.786E+02 -.553E+02   0.370E+02 0.860E+02 0.548E+02   -.352E+01 -.735E+01 0.527E+00   0.455E-05 0.639E-05 -.534E-04
   0.334E+02 0.121E+02 0.271E+02   -.363E+02 -.136E+02 -.339E+02   0.295E+01 0.144E+01 0.677E+01   -.304E-05 -.657E-05 -.721E-04
   0.200E+02 -.333E+02 -.613E+02   -.231E+02 0.383E+02 0.620E+02   0.309E+01 -.495E+01 -.658E+00   -.128E-05 0.188E-05 -.574E-04
   -.623E+02 0.127E+01 -.111E+03   0.686E+02 -.147E+01 0.116E+03   -.630E+01 0.216E+00 -.525E+01   0.282E-05 0.133E-05 -.533E-04
   -.423E+02 -.540E+02 -.103E+03   0.463E+02 0.594E+02 0.107E+03   -.410E+01 -.544E+01 -.436E+01   0.360E-05 0.485E-05 -.545E-04
   0.382E+01 0.443E+01 0.219E+00   -.379E+01 -.441E+01 -.259E+00   -.249E-01 -.157E-01 0.132E-01   -.179E-05 -.462E-05 -.340E-04
   0.317E+02 -.553E+02 -.107E+03   -.349E+02 0.612E+02 0.112E+03   0.323E+01 -.592E+01 -.481E+01   -.180E-06 -.147E-05 -.521E-04
   -.457E+02 0.333E+01 -.678E+02   0.524E+02 -.403E+01 0.686E+02   -.666E+01 0.677E+00 -.843E+00   0.218E-05 -.269E-05 -.582E-04
 -----------------------------------------------------------------------------------------------
   -.637E+02 -.109E+03 0.101E+02   -.284E-13 0.524E-13 0.114E-12   0.636E+02 0.109E+03 -.101E+02   -.132E-03 -.217E-03 0.513E-03
 
 
 POSITION                                       TOTAL-FORCE (eV/Angst)
 -----------------------------------------------------------------------------------
      0.00000      0.00000      0.00000         0.022880     -0.005863      0.002161
      4.75585      8.26294      5.16785         0.021000     -0.006191      0.004666
      9.51903      0.02952     10.80541         0.011564     -0.002042      0.001218
     -1.59263      2.75851      0.00000        -0.046505     -0.017460     -0.039820
      7.94553      2.76124      5.13566         0.002056      0.002211     -0.000110
      7.84662      2.74477     10.15595         0.003105      0.000746      0.016901
     -3.18525      5.51702      0.00000         0.023843      0.027000     -0.016006
      6.34377      5.50978      5.15380        -0.010542      0.018560     -0.003828
      6.32312      5.56952     10.27454         0.009550      0.021338      0.009161
      3.18525      0.00000      0.00000        -0.016287     -0.025458     -0.020763
     -1.61214      8.26388      5.13956        -0.010049     -0.004457     -0.001286
     -1.66388      8.25514     10.12787        -0.014502     -0.011564      0.016294
      1.59263      2.75851      0.00000        -0.001330      0.007183     -0.038376
      1.57593      2.74229      5.11904         0.008452     -0.020465     -0.009897
      1.48405      2.66049     10.15147        -0.004347     -0.006642      0.004390
     -0.00000      5.51702      0.00000        -0.011307      0.001664     -0.030686
     -0.02651      5.51279      5.15878        -0.017491      0.018247     -0.001438
     -0.19363      5.52515     10.76436        -0.012521     -0.002516      0.008156
      6.37050      0.00000      0.00000        -0.002926      0.052218     -0.043650
      1.58365      8.25634      5.14823        -0.004135     -0.004086     -0.003277
      6.30653      0.05688     10.24650         0.003631      0.011818      0.019250
      4.77788      2.75851      0.00000         0.049238     -0.033933     -0.024490
      4.75260      2.76851      5.17783        -0.010503      0.005732      0.000889
      4.74452      2.66588     10.65924        -0.000772      0.001275      0.013748
      3.18525      5.51702      0.00000        -0.020091     -0.002535     -0.042939
      3.18582      5.51527      5.18559         0.017589      0.000711     -0.010208
      3.11443      5.57598     10.67668         0.006082      0.007548      0.001838
      0.00000      1.83901      2.60418         0.004961     -0.023727      0.020511
     -0.05465      1.81185      7.68288         0.003400     -0.008046      0.000968
     -1.59263      4.59751      2.60418         0.012782      0.011089      0.033962
     -1.60679      4.61498      7.72609         0.001267      0.006042      0.003438
     -3.18525      7.35602      2.60418        -0.038506      0.003935     -0.038737
     -3.24407      7.34429      7.67960        -0.021294      0.002283      0.017169
      3.18525      1.83901      2.60418        -0.008523      0.017095      0.041571
      3.16135      1.85040      7.69576         0.001372      0.018966     -0.004264
      1.59263      4.59751      2.60418         0.009009      0.016435      0.010925
      1.56237      4.58986      7.66037         0.008136     -0.003734      0.001964
      0.00000      7.35602      2.60418        -0.004384     -0.036173      0.045232
     -0.00801      7.30710      7.71762         0.000784     -0.007733     -0.004445
      6.37050      1.83901      2.60418        -0.013441      0.005144     -0.011943
      6.31425      1.82129      7.66042        -0.007554      0.005030     -0.004733
      4.77788      4.59751      2.60418        -0.038738      0.002065      0.074245
      4.70489      4.55108      7.88075        -0.006107     -0.005538     -0.015423
      3.18525      7.35602      2.60418         0.013115     -0.028900      0.055047
      3.17922      7.31929      7.85606         0.002405      0.005114     -0.006010
      9.48866      0.03996     12.91755        -0.001834     -0.005267      0.003989
     -2.08999      8.04297     13.55719        -0.025696      0.021602      0.022305
      7.55174      1.97338     13.54988         0.007470     -0.001280      0.023664
      4.26802      2.97900     12.69144        -0.014530      0.006964      0.011316
      2.95841      5.23027     12.65766        -0.035632      0.008625     -0.005981
      0.28820      5.52445     12.79318         0.053676     -0.023171     -0.012794
      8.90024      0.72695     13.33142         0.004350     -0.003842     -0.002986
      0.82141      0.05182     13.35966         0.007673     -0.002111     -0.016267
      3.15144      0.62177     13.42577        -0.024275      0.015903     -0.003010
     -2.06437      7.62632     12.65645         0.007066     -0.022171      0.015999
     -1.58698      2.85569     13.46229         0.011520     -0.005250      0.001829
      7.17522      1.80855     12.64311         0.000200     -0.002820      0.004503
      3.74535      3.87373     12.81272        -0.016571      0.005537     -0.002314
      5.01728      2.97364     13.31982        -0.011851      0.019192      0.008725
      3.45701      5.88702     13.18116        -0.021510      0.022207     -0.011952
      1.46011      4.54479     10.49739         0.004111      0.001290     -0.027720
     -0.07200      6.23056     13.36424         0.069409     -0.023694      0.005163
      1.29742      5.45083     12.93186         0.072061     -0.024100     -0.045844
 -----------------------------------------------------------------------------------
    total drift:                               -0.010563     -0.004516      0.017430


--------------------------------------------------------------------------------------------------------



  FREE ENERGIE OF THE ION-ELECTRON SYSTEM (eV)
  ---------------------------------------------------
  free  energy   TOTEN  =       -69.26265970 eV

  energy  without entropy=      -69.26265970  energy(sigma->0) =      -69.26265970
 


--------------------------------------------------------------------------------------------------------


    POTLOK:  cpu time    5.0787: real time    5.0802


--------------------------------------------------------------------------------------------------------


 stress matrix after NEB project (eV)
     -9.29957      0.77926      0.81678
      0.77926     -8.70910      0.13895
      0.81678      0.13895      0.47285
  FORCES: max atom, RMS     0.088742    0.023076
  FORCE total and by dimension    0.183162    0.072061
  Stress total and by dimension   12.850731    9.299567
     LOOP+:  cpu time  246.7792: real time  248.4936
 vacuum level on the upper side and lower side of the slab         2.506         3.028
    4ORBIT:  cpu time    0.0000: real time    0.0000
 BZINTS: Fermi energy: -0.797594;138.000000 electrons
         Band energy:-878.046210;  BLOECHL correction: -0.083892

 total amount of memory used by VASP MPI-rank0    62229. kBytes
=======================================================================

   base      :      30000. kBytes
   nonlr-proj:       6326. kBytes
   fftplans  :       6459. kBytes
   grid      :      11407. kBytes
   one-center:         24. kBytes
   wavefun   :       8013. kBytes
 
  
  
 General timing and accounting informations for this job:
 ========================================================
  
                  Total CPU time used (sec):      291.877
                            User time (sec):      283.391
                          System time (sec):        8.487
                         Elapsed time (sec):      305.208
  
                   Maximum memory used (kb):      267348.
                   Average memory used (kb):           0.
  
                          Minor page faults:       213957
                          Major page faults:            0
                 Voluntary context switches:        74693
