 running on   72 total cores
 distrk:  each k-point on   72 cores,    1 groups
 distr:  one band on   24 cores,    3 groups
 using from now: INCAR     
 vasp.5.4.4.18Apr17-6-g9f103f2a35 (build Jun 08 2018 12:06:12) complex          
  
 POSCAR found type information on POSCAR  Mg O  H 
 POSCAR found :  3 types and      63 ions
 scaLAPACK will be used

 ----------------------------------------------------------------------------- 
|                                                                             |
|           W    W    AA    RRRRR   N    N  II  N    N   GGGG   !!!           |
|           W    W   A  A   R    R  NN   N  II  NN   N  G    G  !!!           |
|           W    W  A    A  R    R  N N  N  II  N N  N  G       !!!           |
|           W WW W  AAAAAA  RRRRR   N  N N  II  N  N N  G  GGG   !            |
|           WW  WW  A    A  R   R   N   NN  II  N   NN  G    G                |
|           W    W  A    A  R    R  N    N  II  N    N   GGGG   !!!           |
|                                                                             |
|      For optimal performance we recommend to set                            |
|        NCORE= 4 - approx SQRT( number of cores)                             |
|      NCORE specifies how many cores store one orbital (NPAR=cpu/NCORE).     |
|      This setting can  greatly improve the performance of VASP for DFT.     |
|      The default,   NCORE=1            might be grossly inefficient         |
|      on modern multi-core architectures or massively parallel machines.     |
|      Do your own testing !!!!                                               |
|      Unfortunately you need to use the default for GW and RPA calculations. |
|      (for HF NCORE is supported but not extensively tested yet)             |
|                                                                             |
 ----------------------------------------------------------------------------- 


 ----------------------------------------------------------------------------- 
|                                                                             |
|  ADVICE TO THIS USER RUNNING 'VASP/VAMP'   (HEAR YOUR MASTER'S VOICE ...):  |
|                                                                             |
|      You have switched on vdW-DFT.                                          |
|      This routine was written and supplied by Jiri Klimes.                  |
|      We recommed that you carefully read and cite the following             |
|      publication                                                            |
|      J. Klimes, D.R. Bowler, A. Michelides                                  |
|        J. Phys.: Cond Matt. 22 022201 (2010)                                |
|      J. Klimes, D.R. Bowler, A. Michelides                                  |
|        Phys. Rev. B. 83, 195131 (2011)                                      |
|      and references therein.                                                |
|                                                                             |
 ----------------------------------------------------------------------------- 


 ----------------------------------------------------------------------------- 
|                                                                             |
|  ADVICE TO THIS USER RUNNING 'VASP/VAMP'   (HEAR YOUR MASTER'S VOICE ...):  |
|                                                                             |
|      You enforced a specific xc-type in the INCAR file,                     |
|      a different type was found on the POTCAR file                          |
|          I HOPE YOU KNOW, WHAT YOU ARE  DOING                               |
|                                                                             |
 ----------------------------------------------------------------------------- 

 LDA part: xc-table for Pade appr. of Perdew
 POSCAR found type information on POSCAR  Mg O  H 
 POSCAR found :  3 types and      63 ions
 POSCAR, INCAR and KPOINTS ok, starting setup
 FFT: planning ...
 WAVECAR not read
 augmentation electrons   138.058135841157     
 soft         electrons  0.000000000000000E+000
 augmentation electrons   138.058135841157     
 soft         electrons  0.000000000000000E+000
 augmentation electrons   138.058135841157     
 soft         electrons  0.000000000000000E+000
 augmentation electrons   138.058135841157     
 soft         electrons  0.000000000000000E+000
 augmentation electrons   138.058135841157     
 soft         electrons  0.000000000000000E+000
 augmentation electrons   138.058135841157     
 soft         electrons  0.000000000000000E+000
 augmentation electrons   138.058135841157     
 soft         electrons  0.000000000000000E+000
 augmentation electrons   138.058135841157     
 soft         electrons  0.000000000000000E+000
 augmentation electrons   138.058135841157     
 soft         electrons  0.000000000000000E+000
 augmentation electrons   138.058135841157     
 soft         electrons  0.000000000000000E+000
 augmentation electrons   138.058135841157     
 soft         electrons  0.000000000000000E+000
 augmentation electrons   138.058135841157     
 soft         electrons  0.000000000000000E+000
 augmentation electrons   138.058135841157     
 soft         electrons  0.000000000000000E+000
 augmentation electrons   138.058135841157     
 soft         electrons  0.000000000000000E+000
 augmentation electrons   138.058135841157     
 soft         electrons  0.000000000000000E+000
 augmentation electrons   138.058135841157     
 soft         electrons  0.000000000000000E+000
 augmentation electrons   138.058135841157     
 soft         electrons  0.000000000000000E+000
 augmentation electrons   138.058135841157     
 soft         electrons  0.000000000000000E+000
 augmentation electrons   138.058135841157     
 soft         electrons  0.000000000000000E+000
 augmentation electrons   138.058135841157     
 soft         electrons  0.000000000000000E+000
 augmentation electrons   138.058135841157     
 augmentation electrons   138.058135841157     
 soft         electrons  0.000000000000000E+000
 augmentation electrons   138.058135841157     
 soft         electrons  0.000000000000000E+000
 augmentation electrons   138.058135841157     
 soft         electrons  0.000000000000000E+000
 augmentation electrons   138.058135841157     
 soft         electrons  0.000000000000000E+000
 augmentation electrons   138.058135841157     
 soft         electrons  0.000000000000000E+000
 augmentation electrons   138.058135841157     
 soft         electrons  0.000000000000000E+000
 augmentation electrons   138.058135841157     
 soft         electrons  0.000000000000000E+000
 augmentation electrons   138.058135841157     
 soft         electrons  0.000000000000000E+000
 augmentation electrons   138.058135841157     
 soft         electrons  0.000000000000000E+000
 augmentation electrons   138.058135841157     
 soft         electrons  0.000000000000000E+000
 augmentation electrons   138.058135841157     
 soft         electrons  0.000000000000000E+000
 augmentation electrons   138.058135841157     
 soft         electrons  0.000000000000000E+000
 augmentation electrons   138.058135841157     
 soft         electrons  0.000000000000000E+000
 augmentation electrons   138.058135841157     
 soft         electrons  0.000000000000000E+000
 augmentation electrons   138.058135841157     
 soft         electrons  0.000000000000000E+000
 augmentation electrons   138.058135841157     
 soft         electrons  0.000000000000000E+000
 augmentation electrons   138.058135841157     
 soft         electrons  0.000000000000000E+000
 augmentation electrons   138.058135841157     
 soft         electrons  0.000000000000000E+000
 augmentation electrons   138.058135841157     
 soft         electrons  0.000000000000000E+000
 augmentation electrons   138.058135841157     
 soft         electrons  0.000000000000000E+000
 augmentation electrons   138.058135841157     
 soft         electrons  0.000000000000000E+000
 augmentation electrons   138.058135841157     
 soft         electrons  0.000000000000000E+000
 augmentation electrons   138.058135841157     
 soft         electrons  0.000000000000000E+000
 augmentation electrons   138.058135841157     
 soft         electrons  0.000000000000000E+000
 augmentation electrons   138.058135841157     
 soft         electrons  0.000000000000000E+000
 augmentation electrons   138.058135841157     
 soft         electrons  0.000000000000000E+000
 augmentation electrons   138.058135841157     
 soft         electrons  0.000000000000000E+000
 augmentation electrons   138.058135841157     
 soft         electrons  0.000000000000000E+000
 augmentation electrons   138.058135841157     
 soft         electrons  0.000000000000000E+000
 soft         electrons  0.000000000000000E+000
 augmentation electrons   138.058135841157     
 soft         electrons  0.000000000000000E+000
 augmentation electrons   138.058135841157     
 soft         electrons  0.000000000000000E+000
 total        electrons   138.058135841157     
 augmentation electrons   138.058135841157     
 soft         electrons  0.000000000000000E+000
 augmentation electrons   138.058135841157     
 soft         electrons  0.000000000000000E+000
 total        electrons   138.058135841157     
 augmentation electrons   138.058135841157     
 soft         electrons  0.000000000000000E+000
 augmentation electrons   138.058135841157     
 soft         electrons  0.000000000000000E+000
 total        electrons   138.058135841157     
 augmentation electrons   138.058135841157     
 soft         electrons  0.000000000000000E+000
 augmentation electrons   138.058135841157     
 soft         electrons  0.000000000000000E+000
 total        electrons   138.058135841157     
 augmentation electrons   138.058135841157     
 soft         electrons  0.000000000000000E+000
 augmentation electrons   138.058135841157     
 soft         electrons  0.000000000000000E+000
 total        electrons   138.058135841157     
 augmentation electrons   138.058135841157     
 soft         electrons  0.000000000000000E+000
 augmentation electrons   138.058135841157     
 soft         electrons  0.000000000000000E+000
 total        electrons   138.058135841157     
 augmentation electrons   138.058135841157     
 soft         electrons  0.000000000000000E+000
 augmentation electrons   138.058135841157     
 soft         electrons  0.000000000000000E+000
 total        electrons   138.058135841157     
 augmentation electrons   138.058135841157     
 soft         electrons  0.000000000000000E+000
 augmentation electrons   138.058135841157     
 soft         electrons  0.000000000000000E+000
 total        electrons   138.058135841157     
 augmentation electrons   138.058135841157     
 soft         electrons  0.000000000000000E+000
 augmentation electrons   138.058135841157     
 soft         electrons  0.000000000000000E+000
 total        electrons   138.058135841157     
 augmentation electrons   138.058135841157     
 soft         electrons  0.000000000000000E+000
 augmentation electrons   138.058135841157     
 total        electrons   138.058135841157     
 augmentation electrons   138.058135841157     
 soft         electrons  0.000000000000000E+000
 soft         electrons  0.000000000000000E+000
 total        electrons   138.058135841157     
 augmentation electrons   138.058135841157     
 total        electrons   138.058135841157     
 total        electrons   138.058135841157     
 soft         electrons  0.000000000000000E+000
 total        electrons   138.058135841157     
 total        electrons   138.058135841157     
 total        electrons   138.058135841157     
 total        electrons   138.058135841157     
 total        electrons   138.058135841157     
 total        electrons   138.058135841157     
 total        electrons   138.058135841157     
 total        electrons   138.058135841157     
 total        electrons   138.058135841157     
 total        electrons   138.058135841157     
 total        electrons   138.058135841157     
 total        electrons   138.058135841157     
 total        electrons   138.058135841157     
 total        electrons   138.058135841157     
 total        electrons   138.058135841157     
 total        electrons   138.058135841157     
 total        electrons   138.058135841157     
 total        electrons   138.058135841157     
 total        electrons   138.058135841157     
 total        electrons   138.058135841157     
 total        electrons   138.058135841157     
 total        electrons   138.058135841157     
 total        electrons   138.058135841157     
 total        electrons   138.058135841157     
 total        electrons   138.058135841157     
 total        electrons   138.058135841157     
 total        electrons   138.058135841157     
 total        electrons   138.058135841157     
 total        electrons   138.058135841157     
 total        electrons   138.058135841157     
 total        electrons   138.058135841157     
 total        electrons   138.058135841157     
 total        electrons   138.058135841157     
 total        electrons   138.058135841157     
 total        electrons   138.058135841157     
 total        electrons   138.058135841157     
 total        electrons   138.058135841157     
 total        electrons   138.058135841157     
 total        electrons   138.058135841157     
 total        electrons   138.058135841157     
 total        electrons   138.058135841157     
 total        electrons   138.058135841157     
 total        electrons   138.058135841157     
 total        electrons   138.058135841157     
 total        electrons   138.058135841157     
 total        electrons   138.058135841157     
 total        electrons   138.058135841157     
 total        electrons   138.058135841157     
 total        electrons   138.058135841157     
 total        electrons   138.058135841157     
 total        electrons   138.058135841157     
 total        electrons   138.058135841157     
 total        electrons   138.058135841157     
 total        electrons   138.058135841157     
 total        electrons   138.058135841157     
 total        electrons   138.058135841157     
 total        electrons   138.058135841157     
 total        electrons   138.058135841157     
 total        electrons   138.058135841157     
 augmentation electrons   479.131921973032     
 soft         electrons  0.000000000000000E+000
 augmentation electrons   479.131921973032     
 soft         electrons  0.000000000000000E+000
 augmentation electrons   479.131921973032     
 soft         electrons  0.000000000000000E+000
 augmentation electrons   479.131921973032     
 soft         electrons  0.000000000000000E+000
 augmentation electrons   479.131921973032     
 soft         electrons  0.000000000000000E+000
 augmentation electrons   479.131921973032     
 soft         electrons  0.000000000000000E+000
 augmentation electrons   479.131921973032     
 soft         electrons  0.000000000000000E+000
 augmentation electrons   479.131921973032     
 soft         electrons  0.000000000000000E+000
 augmentation electrons   479.131921973032     
 soft         electrons  0.000000000000000E+000
 augmentation electrons   479.131921973032     
 soft         electrons  0.000000000000000E+000
 augmentation electrons   479.131921973032     
 soft         electrons  0.000000000000000E+000
 augmentation electrons   479.131921973032     
 soft         electrons  0.000000000000000E+000
 augmentation electrons   479.131921973032     
 soft         electrons  0.000000000000000E+000
 augmentation electrons   479.131921973032     
 augmentation electrons   479.131921973032     
 soft         electrons  0.000000000000000E+000
 augmentation electrons   479.131921973032     
 soft         electrons  0.000000000000000E+000
 augmentation electrons   479.131921973032     
 soft         electrons  0.000000000000000E+000
 augmentation electrons   479.131921973032     
 soft         electrons  0.000000000000000E+000
 augmentation electrons   479.131921973032     
 soft         electrons  0.000000000000000E+000
 augmentation electrons   479.131921973032     
 soft         electrons  0.000000000000000E+000
 augmentation electrons   479.131921973032     
 soft         electrons  0.000000000000000E+000
 augmentation electrons   479.131921973032     
 soft         electrons  0.000000000000000E+000
 augmentation electrons   479.131921973032     
 soft         electrons  0.000000000000000E+000
 augmentation electrons   479.131921973032     
 soft         electrons  0.000000000000000E+000
 augmentation electrons   479.131921973032     
 soft         electrons  0.000000000000000E+000
 augmentation electrons   479.131921973032     
 soft         electrons  0.000000000000000E+000
 augmentation electrons   479.131921973032     
 augmentation electrons   479.131921973032     
 soft         electrons  0.000000000000000E+000
 augmentation electrons   479.131921973032     
 soft         electrons  0.000000000000000E+000
 augmentation electrons   479.131921973032     
 soft         electrons  0.000000000000000E+000
 augmentation electrons   479.131921973032     
 soft         electrons  0.000000000000000E+000
 augmentation electrons   479.131921973032     
 soft         electrons  0.000000000000000E+000
 augmentation electrons   479.131921973032     
 soft         electrons  0.000000000000000E+000
 augmentation electrons   479.131921973032     
 soft         electrons  0.000000000000000E+000
 augmentation electrons   479.131921973032     
 soft         electrons  0.000000000000000E+000
 augmentation electrons   479.131921973032     
 soft         electrons  0.000000000000000E+000
 augmentation electrons   479.131921973032     
 augmentation electrons   479.131921973032     
 soft         electrons  0.000000000000000E+000
 augmentation electrons   479.131921973032     
 soft         electrons  0.000000000000000E+000
 augmentation electrons   479.131921973032     
 soft         electrons  0.000000000000000E+000
 augmentation electrons   479.131921973032     
 soft         electrons  0.000000000000000E+000
 augmentation electrons   479.131921973032     
 soft         electrons  0.000000000000000E+000
 augmentation electrons   479.131921973032     
 soft         electrons  0.000000000000000E+000
 augmentation electrons   479.131921973032     
 soft         electrons  0.000000000000000E+000
 augmentation electrons   479.131921973032     
 soft         electrons  0.000000000000000E+000
 augmentation electrons   479.131921973032     
 soft         electrons  0.000000000000000E+000
 augmentation electrons   479.131921973032     
 soft         electrons  0.000000000000000E+000
 augmentation electrons   479.131921973032     
 soft         electrons  0.000000000000000E+000
 augmentation electrons   479.131921973032     
 soft         electrons  0.000000000000000E+000
 soft         electrons  0.000000000000000E+000
 augmentation electrons   479.131921973032     
 soft         electrons  0.000000000000000E+000
 augmentation electrons   479.131921973032     
 soft         electrons  0.000000000000000E+000
 total        electrons   479.131921973032     
 augmentation electrons   479.131921973032     
 soft         electrons  0.000000000000000E+000
 augmentation electrons   479.131921973032     
 soft         electrons  0.000000000000000E+000
 total        electrons   479.131921973032     
 augmentation electrons   479.131921973032     
 soft         electrons  0.000000000000000E+000
 augmentation electrons   479.131921973032     
 soft         electrons  0.000000000000000E+000
 total        electrons   479.131921973032     
 augmentation electrons   479.131921973032     
 soft         electrons  0.000000000000000E+000
 augmentation electrons   479.131921973032     
 soft         electrons  0.000000000000000E+000
 total        electrons   479.131921973032     
 augmentation electrons   479.131921973032     
 soft         electrons  0.000000000000000E+000
 augmentation electrons   479.131921973032     
 soft         electrons  0.000000000000000E+000
 total        electrons   479.131921973032     
 augmentation electrons   479.131921973032     
 soft         electrons  0.000000000000000E+000
 augmentation electrons   479.131921973032     
 soft         electrons  0.000000000000000E+000
 total        electrons   479.131921973032     
 augmentation electrons   479.131921973032     
 soft         electrons  0.000000000000000E+000
 augmentation electrons   479.131921973032     
 soft         electrons  0.000000000000000E+000
 total        electrons   479.131921973032     
 augmentation electrons   479.131921973032     
 soft         electrons  0.000000000000000E+000
 augmentation electrons   479.131921973032     
 soft         electrons  0.000000000000000E+000
 total        electrons   479.131921973032     
 augmentation electrons   479.131921973032     
 soft         electrons  0.000000000000000E+000
 augmentation electrons   479.131921973032     
 soft         electrons  0.000000000000000E+000
 total        electrons   479.131921973032     
 augmentation electrons   479.131921973032     
 soft         electrons  0.000000000000000E+000
 augmentation electrons   479.131921973032     
 soft         electrons  0.000000000000000E+000
 total        electrons   479.131921973032     
 augmentation electrons   479.131921973032     
 soft         electrons  0.000000000000000E+000
 augmentation electrons   479.131921973032     
 soft         electrons  0.000000000000000E+000
 total        electrons   479.131921973032     
 augmentation electrons   479.131921973032     
 soft         electrons  0.000000000000000E+000
 soft         electrons  0.000000000000000E+000
 total        electrons   479.131921973032     
 soft         electrons  0.000000000000000E+000
 total        electrons   479.131921973032     
 total        electrons   479.131921973032     
 total        electrons   479.131921973032     
 total        electrons   479.131921973032     
 total        electrons   479.131921973032     
 total        electrons   479.131921973032     
 total        electrons   479.131921973032     
 total        electrons   479.131921973032     
 total        electrons   479.131921973032     
 total        electrons   479.131921973032     
 total        electrons   479.131921973032     
 total        electrons   479.131921973032     
 total        electrons   479.131921973032     
 total        electrons   479.131921973032     
 total        electrons   479.131921973032     
 total        electrons   479.131921973032     
 total        electrons   479.131921973032     
 total        electrons   479.131921973032     
 total        electrons   479.131921973032     
 total        electrons   479.131921973032     
 total        electrons   479.131921973032     
 total        electrons   479.131921973032     
 total        electrons   479.131921973032     
 total        electrons   479.131921973032     
 total        electrons   479.131921973032     
 total        electrons   479.131921973032     
 total        electrons   479.131921973032     
 total        electrons   479.131921973032     
 total        electrons   479.131921973032     
 total        electrons   479.131921973032     
 total        electrons   479.131921973032     
 total        electrons   479.131921973032     
 total        electrons   479.131921973032     
 total        electrons   479.131921973032     
 total        electrons   479.131921973032     
 total        electrons   479.131921973032     
 total        electrons   479.131921973032     
 total        electrons   479.131921973032     
 total        electrons   479.131921973032     
 total        electrons   479.131921973032     
 total        electrons   479.131921973032     
 total        electrons   479.131921973032     
 total        electrons   479.131921973032     
 total        electrons   479.131921973032     
 total        electrons   479.131921973032     
 total        electrons   479.131921973032     
 total        electrons   479.131921973032     
 total        electrons   479.131921973032     
 total        electrons   479.131921973032     
 total        electrons   479.131921973032     
 total        electrons   479.131921973032     
 total        electrons   479.131921973032     
 total        electrons   479.131921973032     
 total        electrons   479.131921973032     
 total        electrons   479.131921973032     
 total        electrons   479.131921973032     
 total        electrons   479.131921973032     
 total        electrons   479.131921973032     
 total        electrons   479.131921973032     
 total        electrons   479.131921973032     
 entering main loop
       N       E                     dE             d eps       ncg     rms          rms(c)
Total vdW correction in eV:     53.7270853
RMM:   1     0.124056321092E+04    0.12406E+04   -0.27932E+04   510   0.785E+02
RMM:   2     0.544699899585E+03   -0.69586E+03   -0.75466E+03   510   0.166E+02
RMM:   3     0.310586093190E+03   -0.23411E+03   -0.29789E+03   510   0.830E+01
RMM:   4     0.139420153849E+03   -0.17117E+03   -0.14729E+03   510   0.790E+01
RMM:   5     0.228372157845E+02   -0.11658E+03   -0.92661E+02   510   0.639E+01
RMM:   6    -0.425368627573E+02   -0.65374E+02   -0.49452E+02   510   0.462E+01
RMM:   7    -0.703740861620E+02   -0.27837E+02   -0.20966E+02   510   0.271E+01
RMM:   8    -0.782393911884E+02   -0.78653E+01   -0.62566E+01   510   0.141E+01
RMM:   9    -0.806154924463E+02   -0.23761E+01   -0.22650E+01  1487   0.773E+00
RMM:  10    -0.809046568230E+02   -0.28916E+00   -0.30592E+00  1771   0.279E+00
RMM:  11    -0.809045619814E+02    0.94842E-04   -0.15937E-01  1712   0.690E-01
RMM:  12    -0.809071021536E+02   -0.25402E-02   -0.33936E-02  1810   0.287E-01    0.202E+01
Total vdW correction in eV:     53.7995349
RMM:  13    -0.709645126426E+02    0.99426E+01   -0.61185E+01  1425   0.142E+01    0.787E+00
Total vdW correction in eV:     53.7696586
RMM:  14    -0.960575760837E+02   -0.25093E+02   -0.13206E+01  1616   0.361E+00    0.106E+01
Total vdW correction in eV:     53.7533632
RMM:  15    -0.696242230399E+02    0.26433E+02   -0.31716E+00  1438   0.155E+00    0.495E+00
Total vdW correction in eV:     53.7002776
RMM:  16    -0.696321582279E+02   -0.79352E-02   -0.14150E+00  1589   0.199E+00    0.253E+00
Total vdW correction in eV:     53.6960263
RMM:  17    -0.692933035204E+02    0.33885E+00   -0.41416E-01  1347   0.134E+00    0.880E-01
Total vdW correction in eV:     53.7102673
RMM:  18    -0.692733282988E+02    0.19975E-01   -0.14370E-01  1550   0.713E-01    0.345E-01
Total vdW correction in eV:     53.7157506
RMM:  19    -0.692724341807E+02    0.89412E-03   -0.17738E-02  1382   0.264E-01    0.231E-01
Total vdW correction in eV:     53.7217078
RMM:  20    -0.692718460789E+02    0.58810E-03   -0.10631E-02  1491   0.204E-01    0.736E-02
Total vdW correction in eV:     53.7330157
RMM:  21    -0.692672850857E+02    0.45610E-02   -0.21717E-03  1424   0.854E-02    0.417E-02
Total vdW correction in eV:     53.7384150
RMM:  22    -0.692629348549E+02    0.43502E-02   -0.47206E-04  1485   0.328E-02    0.246E-02
Total vdW correction in eV:     53.7439595
RMM:  23    -0.692611067532E+02    0.18281E-02   -0.24447E-04  1224   0.294E-02    0.159E-02
Total vdW correction in eV:     53.7495167
RMM:  24    -0.692624826928E+02   -0.13759E-02   -0.26941E-04  1113   0.349E-02    0.980E-03
Total vdW correction in eV:     53.7519302
RMM:  25    -0.692628065538E+02   -0.32386E-03   -0.22955E-04  1051   0.309E-02    0.644E-03
Total vdW correction in eV:     53.7528578
RMM:  26    -0.692626469952E+02    0.15956E-03   -0.32442E-04  1027   0.257E-02    0.320E-03
Total vdW correction in eV:     53.7528475
RMM:  27    -0.692626530432E+02   -0.60480E-05   -0.80932E-05   951   0.124E-02    0.138E-03
Total vdW correction in eV:     53.7527610
RMM:  28    -0.692626787910E+02   -0.25748E-04   -0.25994E-05   868   0.856E-03    0.806E-04
Total vdW correction in eV:     53.7526411
RMM:  29    -0.692627018575E+02   -0.23066E-04   -0.59993E-05   835   0.902E-03    0.535E-04
Total vdW correction in eV:     53.7525609
RMM:  30    -0.692627262060E+02   -0.24349E-04   -0.27351E-05   790   0.890E-03    0.324E-04
Total vdW correction in eV:     53.7524898
RMM:  31    -0.692627526120E+02   -0.26406E-04   -0.12464E-05   742   0.529E-03    0.101E-03
Total vdW correction in eV:     53.7524703
RMM:  32    -0.692627382883E+02    0.14324E-04   -0.11141E-05   844   0.437E-03    0.525E-04
Total vdW correction in eV:     53.7524578
RMM:  33    -0.692627050921E+02    0.33196E-04   -0.12416E-05   949   0.535E-03    0.169E-04
Total vdW correction in eV:     53.7524549
RMM:  34    -0.692626948130E+02    0.10279E-04   -0.23209E-05  1006   0.606E-03    0.146E-04
Total vdW correction in eV:     53.7524475
RMM:  35    -0.692626617728E+02    0.33040E-04   -0.34367E-05  1202   0.986E-03    0.652E-05
Total vdW correction in eV:     53.7524473
RMM:  36    -0.692626597001E+02    0.20727E-05   -0.25959E-05  1163   0.862E-03
Total vdW correction in eV:     53.7524473
Total vdW correction in eV:     53.7524476
   1 F= -.69262660E+02 E0= -.69262660E+02  d E =0.000000E+00
 augmentation electrons   4.46486253402028     
 soft         electrons   133.572178612167     
 augmentation electrons   4.46486253402028     
 soft         electrons   133.572178612167     
 augmentation electrons   4.46486253402028     
 soft         electrons   133.572178612167     
 augmentation electrons   4.46486253402028     
 soft         electrons   133.572178612167     
 augmentation electrons   4.46486253402028     
 soft         electrons   133.572178612167     
 augmentation electrons   4.46486253402028     
 soft         electrons   133.572178612167     
 augmentation electrons   4.46486253402028     
 soft         electrons   133.572178612167     
 augmentation electrons   4.46486253402028     
 soft         electrons   133.572178612167     
 augmentation electrons   4.46486253402028     
 soft         electrons   133.572178612167     
 augmentation electrons   4.46486253402028     
 soft         electrons   133.572178612167     
 augmentation electrons   4.46486253402028     
 soft         electrons   133.572178612167     
 augmentation electrons   4.46486253402028     
 soft         electrons   133.572178612167     
 augmentation electrons   4.46486253402028     
 soft         electrons   133.572178612167     
 augmentation electrons   4.46486253402028     
 soft         electrons   133.572178612167     
 augmentation electrons   4.46486253402028     
 soft         electrons   133.572178612167     
 augmentation electrons   4.46486253402028     
 soft         electrons   133.572178612167     
 augmentation electrons   4.46486253402028     
 soft         electrons   133.572178612167     
 augmentation electrons   4.46486253402028     
 soft         electrons   133.572178612167     
 augmentation electrons   4.46486253402028     
 soft         electrons   133.572178612167     
 augmentation electrons   4.46486253402028     
 soft         electrons   133.572178612167     
 augmentation electrons   4.46486253402028     
 augmentation electrons   4.46486253402028     
 soft         electrons   133.572178612167     
 augmentation electrons   4.46486253402028     
 augmentation electrons   4.46486253402028     
 soft         electrons   133.572178612167     
 augmentation electrons   4.46486253402028     
 soft         electrons   133.572178612167     
 augmentation electrons   4.46486253402028     
 soft         electrons   133.572178612167     
 augmentation electrons   4.46486253402028     
 soft         electrons   133.572178612167     
 augmentation electrons   4.46486253402028     
 augmentation electrons   4.46486253402028     
 soft         electrons   133.572178612167     
 augmentation electrons   4.46486253402028     
 soft         electrons   133.572178612167     
 augmentation electrons   4.46486253402028     
 soft         electrons   133.572178612167     
 augmentation electrons   4.46486253402028     
 soft         electrons   133.572178612167     
 augmentation electrons   4.46486253402028     
 soft         electrons   133.572178612167     
 augmentation electrons   4.46486253402028     
 soft         electrons   133.572178612167     
 augmentation electrons   4.46486253402028     
 soft         electrons   133.572178612167     
 augmentation electrons   4.46486253402028     
 soft         electrons   133.572178612167     
 augmentation electrons   4.46486253402028     
 soft         electrons   133.572178612167     
 augmentation electrons   4.46486253402028     
 soft         electrons   133.572178612167     
 augmentation electrons   4.46486253402028     
 soft         electrons   133.572178612167     
 augmentation electrons   4.46486253402028     
 soft         electrons   133.572178612167     
 augmentation electrons   4.46486253402028     
 soft         electrons   133.572178612167     
 augmentation electrons   4.46486253402028     
 soft         electrons   133.572178612167     
 augmentation electrons   4.46486253402028     
 soft         electrons   133.572178612167     
 augmentation electrons   4.46486253402028     
 soft         electrons   133.572178612167     
 augmentation electrons   4.46486253402028     
 soft         electrons   133.572178612167     
 augmentation electrons   4.46486253402028     
 soft         electrons   133.572178612167     
 augmentation electrons   4.46486253402028     
 soft         electrons   133.572178612167     
 augmentation electrons   4.46486253402028     
 soft         electrons   133.572178612167     
 augmentation electrons   4.46486253402028     
 soft         electrons   133.572178612167     
 augmentation electrons   4.46486253402028     
 soft         electrons   133.572178612167     
 soft         electrons   133.572178612167     
 augmentation electrons   4.46486253402028     
 soft         electrons   133.572178612167     
 augmentation electrons   4.46486253402028     
 soft         electrons   133.572178612167     
 total        electrons   138.037041146187     
 augmentation electrons   4.46486253402028     
 soft         electrons   133.572178612167     
 augmentation electrons   4.46486253402028     
 soft         electrons   133.572178612167     
 total        electrons   138.037041146187     
 augmentation electrons   4.46486253402028     
 soft         electrons   133.572178612167     
 augmentation electrons   4.46486253402028     
 soft         electrons   133.572178612167     
 total        electrons   138.037041146187     
 augmentation electrons   4.46486253402028     
 soft         electrons   133.572178612167     
 augmentation electrons   4.46486253402028     
 soft         electrons   133.572178612167     
 total        electrons   138.037041146187     
 augmentation electrons   4.46486253402028     
 soft         electrons   133.572178612167     
 augmentation electrons   4.46486253402028     
 soft         electrons   133.572178612167     
 total        electrons   138.037041146187     
 augmentation electrons   4.46486253402028     
 soft         electrons   133.572178612167     
 augmentation electrons   4.46486253402028     
 soft         electrons   133.572178612167     
 total        electrons   138.037041146187     
 augmentation electrons   4.46486253402028     
 soft         electrons   133.572178612167     
 augmentation electrons   4.46486253402028     
 soft         electrons   133.572178612167     
 total        electrons   138.037041146187     
 augmentation electrons   4.46486253402028     
 soft         electrons   133.572178612167     
 augmentation electrons   4.46486253402028     
 soft         electrons   133.572178612167     
 total        electrons   138.037041146187     
 augmentation electrons   4.46486253402028     
 soft         electrons   133.572178612167     
 augmentation electrons   4.46486253402028     
 soft         electrons   133.572178612167     
 total        electrons   138.037041146187     
 augmentation electrons   4.46486253402028     
 soft         electrons   133.572178612167     
 augmentation electrons   4.46486253402028     
 soft         electrons   133.572178612167     
 total        electrons   138.037041146187     
 augmentation electrons   4.46486253402028     
 soft         electrons   133.572178612167     
 soft         electrons   133.572178612167     
 total        electrons   138.037041146187     
 augmentation electrons   4.46486253402028     
 soft         electrons   133.572178612167     
 total        electrons   138.037041146187     
 total        electrons   138.037041146187     
 soft         electrons   133.572178612167     
 total        electrons   138.037041146187     
 total        electrons   138.037041146187     
 total        electrons   138.037041146187     
 total        electrons   138.037041146187     
 total        electrons   138.037041146187     
 total        electrons   138.037041146187     
 total        electrons   138.037041146187     
 total        electrons   138.037041146187     
 total        electrons   138.037041146187     
 total        electrons   138.037041146187     
 total        electrons   138.037041146187     
 total        electrons   138.037041146187     
 total        electrons   138.037041146187     
 total        electrons   138.037041146187     
 total        electrons   138.037041146187     
 total        electrons   138.037041146187     
 total        electrons   138.037041146187     
 total        electrons   138.037041146187     
 total        electrons   138.037041146187     
 total        electrons   138.037041146187     
 total        electrons   138.037041146187     
 total        electrons   138.037041146187     
 total        electrons   138.037041146187     
 total        electrons   138.037041146187     
 total        electrons   138.037041146187     
 total        electrons   138.037041146187     
 total        electrons   138.037041146187     
 total        electrons   138.037041146187     
 total        electrons   138.037041146187     
 total        electrons   138.037041146187     
 total        electrons   138.037041146187     
 total        electrons   138.037041146187     
 total        electrons   138.037041146187     
 total        electrons   138.037041146187     
 total        electrons   138.037041146187     
 total        electrons   138.037041146187     
 total        electrons   138.037041146187     
 total        electrons   138.037041146187     
 total        electrons   138.037041146187     
 total        electrons   138.037041146187     
 total        electrons   138.037041146187     
 total        electrons   138.037041146187     
 total        electrons   138.037041146187     
 total        electrons   138.037041146187     
 total        electrons   138.037041146187     
 total        electrons   138.037041146187     
 total        electrons   138.037041146187     
 total        electrons   138.037041146187     
 total        electrons   138.037041146187     
 total        electrons   138.037041146187     
 total        electrons   138.037041146187     
 total        electrons   138.037041146187     
 total        electrons   138.037041146187     
 total        electrons   138.037041146187     
 total        electrons   138.037041146187     
 total        electrons   138.037041146187     
 total        electrons   138.037041146187     
 total        electrons   138.037041146187     
 total        electrons   138.037041146187     
