<?xml version="1.0" encoding="ISO-8859-1"?>
<modeling>
 <generator>
  <i name="program" type="string">vasp </i>
  <i name="version" type="string">5.4.4.18Apr17-6-g9f103f2a35  </i>
  <i name="subversion" type="string">(build Jun 08 2018 12:06:12) complex            parallel </i>
  <i name="platform" type="string">LinuxIFC </i>
  <i name="date" type="string">2019 06 06 </i>
  <i name="time" type="string">07:13:18 </i>
 </generator>
 <incar>
  <i type="string" name="SYSTEM"> Mg_slab_in_a_box</i>
  <i type="string" name="PREC">accurate</i>
  <i type="string" name="ALGO"> V</i>
  <i type="int" name="NELM">   300</i>
  <i type="int" name="NELMIN">     6</i>
  <i name="EDIFF">      0.00000500</i>
  <i name="ENCUT">    520.00000000</i>
  <i type="string" name="LREAL"> AUTO</i>
  <i type="logical" name="LPLANE"> T  </i>
  <i type="int" name="ISMEAR">    -5</i>
  <i type="logical" name="LWAVE"> F  </i>
  <i type="logical" name="LCHARG"> T  </i>
  <i type="logical" name="LVTOT"> T  </i>
  <i type="logical" name="LVHAR"> T  </i>
  <i type="logical" name="LSCALU"> F  </i>
  <i type="logical" name="LASPH"> T  </i>
  <i type="logical" name="LAECHG"> T  </i>
  <v type="int" name="KPOINT_BSE">    -1     0     0     0</v>
  <i type="int" name="NELM">   300</i>
  <i type="string" name="GGA"> BO</i>
  <i name="PARAM1">      0.18333333</i>
  <i name="PARAM2">      0.22000000</i>
  <i type="logical" name="LUSE_VDW"> T  </i>
  <i name="AGGAC">      0.00000000</i>
  <i type="logical" name="LDIPOL"> T  </i>
  <i type="int" name="IDIPOL">     3</i>
  <i type="logical" name="LASPH"> T  </i>
 </incar>
 <structure name="primitive_cell" >
  <crystal>
   <varray name="basis" >
    <v>       9.55575275       0.00000000       0.00000000 </v>
    <v>      -4.77787638       8.27552464       0.00000000 </v>
    <v>       0.00000000       0.00000000      32.62509537 </v>
   </varray>
   <i name="volume">   2579.95558872 </i>
   <varray name="rec_basis" >
    <v>       0.10464900       0.06041913       0.00000000 </v>
    <v>       0.00000000       0.12083826       0.00000000 </v>
    <v>       0.00000000       0.00000000       0.03065125 </v>
   </varray>
  </crystal>
  <varray name="positions" >
   <v>       0.00000000       0.00000000       0.00000000 </v>
   <v>       0.00000002      -0.33333328       0.00000000 </v>
   <v>      -0.33333330      -0.33333328       0.00000000 </v>
   <v>      -0.33333332       0.00000000       0.00000000 </v>
   <v>       0.33333334       0.00000000       0.00000000 </v>
   <v>       0.00000001       0.33333336       0.00000000 </v>
   <v>       0.33333335       0.33333336       0.00000000 </v>
   <v>      -0.22222216      -0.11111106       0.07982145 </v>
   <v>       0.11111116      -0.11111106       0.07982145 </v>
   <v>       0.11111113       0.22222222       0.07982145 </v>
   <v>      -0.22222219      -0.44444439       0.07982145 </v>
   <v>      -0.22222221       0.22222222       0.07982145 </v>
   <v>       0.44444450       0.22222222       0.07982145 </v>
   <v>      -0.00306535      -0.00152113       0.15840122 </v>
   <v>       0.33333336      -0.33333328       0.00000000 </v>
   <v>      -0.33333332       0.33333336       0.00000000 </v>
   <v>       0.44444450      -0.44444439       0.07982145 </v>
   <v>       0.44444451      -0.11111106       0.07982145 </v>
   <v>       0.11111114      -0.44444439       0.07982145 </v>
   <v>       0.33060643       0.33137350       0.15690501 </v>
   <v>       0.33058778      -0.00140678       0.15753391 </v>
   <v>      -0.00167620       0.33366384       0.15741446 </v>
   <v>      -0.00323481      -0.33420777       0.15797047 </v>
   <v>      -0.33543147      -0.00231869       0.15779968 </v>
   <v>      -0.33337879      -0.33354437       0.15894481 </v>
   <v>       0.33030313      -0.33384453       0.15812306 </v>
   <v>      -0.33537412       0.33454177       0.15870709 </v>
   <v>       0.10424758      -0.11252842       0.23538937 </v>
   <v>       0.10375180       0.21894099       0.23548994 </v>
   <v>      -0.22507304      -0.11554969       0.24079821 </v>
   <v>      -0.22917852       0.22008206       0.23480151 </v>
   <v>       0.44263202       0.22359951       0.23588465 </v>
   <v>      -0.23266549      -0.45005579       0.24155497 </v>
   <v>       0.44081606      -0.44536899       0.23479980 </v>
   <v>       0.11068414      -0.44233344       0.23681435 </v>
   <v>       0.44065093      -0.11702261       0.23655460 </v>
   <v>       0.32464423      -0.00246380       0.31043188 </v>
   <v>       0.31604887       0.32148905       0.31115536 </v>
   <v>      -0.01302309       0.33167292       0.31129262 </v>
   <v>      -0.00178662      -0.32698919       0.31492761 </v>
   <v>      -0.33659160       0.00687347       0.31406820 </v>
   <v>      -0.00205946       0.00356768       0.33119919 </v>
   <v>      -0.33718253      -0.32620807       0.32725367 </v>
   <v>       0.42739146      -0.45081500       0.32175810 </v>
   <v>      -0.34242091       0.32213990       0.32671901 </v>
   <v>       0.31356087      -0.33235106       0.32994107 </v>
   <v>      -0.00460701       0.00482879       0.39593905 </v>
   <v>       0.24474148      -0.07844876       0.38793614 </v>
   <v>      -0.13984931       0.21854237       0.38752717 </v>
   <v>      -0.37439689      -0.36798286       0.38797327 </v>
   <v>      -0.02467716       0.08784288       0.40862463 </v>
   <v>       0.08908999       0.00626146       0.40949018 </v>
   <v>      -0.28253895      -0.28862292       0.40401913 </v>
   <v>      -0.37400536       0.46809498       0.39272592 </v>
   <v>       0.46510821      -0.34133132       0.39637768 </v>
   <v>      -0.37336675       0.35997777       0.38900865 </v>
   <v>       0.36736136       0.07513338       0.41151651 </v>
   <v>       0.26723437      -0.02810093       0.41554480 </v>
   <v>       0.36394281      -0.33243494       0.39212692 </v>
   <v>      -0.09048739       0.23846037       0.41532082 </v>
   <v>       0.00646258       0.34507691       0.41263589 </v>
   <v>       0.36891091      -0.24710975       0.40963059 </v>
   <v>      -0.29528177       0.35932960       0.40826925 </v>
  </varray>
 </structure>
 <varray name="primitive_index" >
  <v type="int" >        1 </v>
  <v type="int" >        7 </v>
  <v type="int" >       25 </v>
  <v type="int" >       19 </v>
  <v type="int" >       10 </v>
  <v type="int" >        4 </v>
  <v type="int" >       13 </v>
  <v type="int" >       44 </v>
  <v type="int" >       32 </v>
  <v type="int" >       28 </v>
  <v type="int" >       42 </v>
  <v type="int" >       40 </v>
  <v type="int" >       34 </v>
  <v type="int" >        2 </v>
  <v type="int" >       16 </v>
  <v type="int" >       22 </v>
  <v type="int" >       36 </v>
  <v type="int" >       38 </v>
  <v type="int" >       30 </v>
  <v type="int" >       14 </v>
  <v type="int" >       11 </v>
  <v type="int" >        5 </v>
  <v type="int" >        8 </v>
  <v type="int" >       20 </v>
  <v type="int" >       26 </v>
  <v type="int" >       17 </v>
  <v type="int" >       23 </v>
  <v type="int" >       33 </v>
  <v type="int" >       29 </v>
  <v type="int" >       45 </v>
  <v type="int" >       41 </v>
  <v type="int" >       35 </v>
  <v type="int" >       43 </v>
  <v type="int" >       37 </v>
  <v type="int" >       31 </v>
  <v type="int" >       39 </v>
  <v type="int" >       12 </v>
  <v type="int" >       15 </v>
  <v type="int" >        6 </v>
  <v type="int" >        9 </v>
  <v type="int" >       21 </v>
  <v type="int" >        3 </v>
  <v type="int" >       27 </v>
  <v type="int" >       61 </v>
  <v type="int" >       24 </v>
  <v type="int" >       18 </v>
  <v type="int" >       46 </v>
  <v type="int" >       55 </v>
  <v type="int" >       57 </v>
  <v type="int" >       50 </v>
  <v type="int" >       52 </v>
  <v type="int" >       53 </v>
  <v type="int" >       60 </v>
  <v type="int" >       58 </v>
  <v type="int" >       63 </v>
  <v type="int" >       49 </v>
  <v type="int" >       54 </v>
  <v type="int" >       47 </v>
  <v type="int" >       51 </v>
  <v type="int" >       48 </v>
  <v type="int" >       56 </v>
  <v type="int" >       62 </v>
  <v type="int" >       59 </v>
 </varray>
 <kpoints>
  <generation param="Gamma">
   <v type="int" name="divisions">       3        3        1 </v>
   <v name="usershift">      0.00000000       0.00000000       0.00000000 </v>
   <v name="genvec1">      0.33333333       0.00000000       0.00000000 </v>
   <v name="genvec2">      0.00000000       0.33333333       0.00000000 </v>
   <v name="genvec3">      0.00000000       0.00000000       1.00000000 </v>
   <v name="shift">      0.00000000       0.00000000       0.00000000 </v>
  </generation>
  <varray name="kpointlist" >
   <v>       0.00000000       0.00000000       0.00000000 </v>
   <v>       0.33333333      -0.00000000       0.00000000 </v>
   <v>       0.00000000       0.33333333       0.00000000 </v>
   <v>       0.33333333       0.33333333       0.00000000 </v>
   <v>      -0.33333333       0.33333333       0.00000000 </v>
  </varray>
  <varray name="weights" >
   <v>       0.11111111 </v>
   <v>       0.22222222 </v>
   <v>       0.22222222 </v>
   <v>       0.22222222 </v>
   <v>       0.22222222 </v>
  </varray>
  <varray name="tetrahedronlist"  type="int" >
   <v type="int" >        2        2        3        3        4 </v>
   <v type="int" >        2        1        2        3        3 </v>
   <v type="int" >        2        1        1        2        3 </v>
   <v type="int" >        2        2        3        4        4 </v>
   <v type="int" >        2        2        2        3        4 </v>
   <v type="int" >        2        1        2        2        3 </v>
   <v type="int" >        2        2        4        4        5 </v>
   <v type="int" >        2        2        2        4        4 </v>
   <v type="int" >        4        2        2        2        4 </v>
   <v type="int" >        2        2        4        5        5 </v>
   <v type="int" >        2        2        2        4        5 </v>
   <v type="int" >        2        1        3        5        5 </v>
   <v type="int" >        2        1        2        5        5 </v>
   <v type="int" >        2        1        2        2        5 </v>
   <v type="int" >        2        1        3        3        5 </v>
   <v type="int" >        2        1        1        3        5 </v>
   <v type="int" >        2        1        1        2        5 </v>
   <v type="int" >        2        3        3        4        5 </v>
   <v type="int" >        4        3        3        3        4 </v>
   <v type="int" >        2        3        4        5        5 </v>
   <v type="int" >        2        3        4        4        5 </v>
   <v type="int" >        2        3        3        4        4 </v>
   <v type="int" >        4        4        5        5        5 </v>
   <v type="int" >        2        4        4        5        5 </v>
  </varray>
  <i name="volumeweight">      0.01851852 </i>
 </kpoints>
 <parameters>
  <separator name="general" >
   <i type="string" name="SYSTEM">Mg_slab_in_a_box</i>
   <i type="logical" name="LCOMPAT"> F  </i>
  </separator>
  <separator name="electronic" >
   <i type="string" name="PREC">accura</i>
   <i name="ENMAX">    520.00000000</i>
   <i name="ENAUG">    605.39200000</i>
   <i name="EDIFF">      0.00000500</i>
   <i type="int" name="IALGO">    48</i>
   <i type="int" name="IWAVPR">    10</i>
   <i type="int" name="NBANDS">   102</i>
   <i name="NELECT">    138.00000000</i>
   <i type="int" name="TURBO">     0</i>
   <i type="int" name="IRESTART">     0</i>
   <i type="int" name="NREBOOT">     0</i>
   <i type="int" name="NMIN">     0</i>
   <i name="EREF">      0.00000000</i>
   <separator name="electronic smearing" >
    <i type="int" name="ISMEAR">    -5</i>
    <i name="SIGMA">      0.20000000</i>
    <i name="KSPACING">      0.50000000</i>
    <i type="logical" name="KGAMMA"> T  </i>
   </separator>
   <separator name="electronic projectors" >
    <i type="logical" name="LREAL"> T  </i>
    <v name="ROPT">     -0.00025000     -0.00025000     -0.00025000</v>
    <i type="int" name="LMAXPAW">  -100</i>
    <i type="int" name="LMAXMIX">     2</i>
    <i type="logical" name="NLSPLINE"> F  </i>
   </separator>
   <separator name="electronic startup" >
    <i type="int" name="ISTART">     0</i>
    <i type="int" name="ICHARG">     2</i>
    <i type="int" name="INIWAV">     1</i>
   </separator>
   <separator name="electronic spin" >
    <i type="int" name="ISPIN">     1</i>
    <i type="logical" name="LNONCOLLINEAR"> F  </i>
    <v name="MAGMOM">      1.00000000      1.00000000      1.00000000      1.00000000      1.00000000      1.00000000      1.00000000      1.00000000      1.00000000      1.00000000      1.00000000      1.00000000      1.00000000      1.00000000      1.00000000      1.00000000      1.00000000      1.00000000      1.00000000      1.00000000
      1.00000000      1.00000000      1.00000000      1.00000000      1.00000000      1.00000000      1.00000000      1.00000000      1.00000000      1.00000000      1.00000000      1.00000000      1.00000000      1.00000000      1.00000000      1.00000000      1.00000000      1.00000000      1.00000000      1.00000000
      1.00000000      1.00000000      1.00000000      1.00000000      1.00000000      1.00000000      1.00000000      1.00000000      1.00000000      1.00000000      1.00000000      1.00000000      1.00000000      1.00000000      1.00000000      1.00000000      1.00000000      1.00000000      1.00000000      1.00000000
      1.00000000      1.00000000      1.00000000</v>
    <i name="NUPDOWN">     -1.00000000</i>
    <i type="logical" name="LSORBIT"> F  </i>
    <v name="SAXIS">      0.00000000      0.00000000      1.00000000</v>
    <i type="logical" name="LSPIRAL"> F  </i>
    <v name="QSPIRAL">      0.00000000      0.00000000      0.00000000</v>
    <i type="logical" name="LZEROZ"> F  </i>
   </separator>
   <separator name="electronic exchange-correlation" >
    <i type="logical" name="LASPH"> T  </i>
    <i type="logical" name="LMETAGGA"> F  </i>
   </separator>
   <separator name="electronic convergence" >
    <i type="int" name="NELM">   300</i>
    <i type="int" name="NELMDL">   -12</i>
    <i type="int" name="NELMIN">     6</i>
    <i name="ENINI">    520.00000000</i>
    <separator name="electronic convergence detail" >
     <i type="logical" name="LDIAG"> T  </i>
     <i type="logical" name="LSUBROT"> F  </i>
     <i name="WEIMIN">      0.00000000</i>
     <i name="EBREAK">      0.00000001</i>
     <i name="DEPER">      0.30000000</i>
     <i type="int" name="NRMM">     4</i>
     <i name="TIME">      0.40000000</i>
    </separator>
   </separator>
   <separator name="electronic mixer" >
    <i name="AMIX">      0.40000000</i>
    <i name="BMIX">      1.00000000</i>
    <i name="AMIN">      0.10000000</i>
    <i name="AMIX_MAG">      1.60000000</i>
    <i name="BMIX_MAG">      1.00000000</i>
    <separator name="electronic mixer details" >
     <i type="int" name="IMIX">     4</i>
     <i type="logical" name="MIXFIRST"> F  </i>
     <i type="int" name="MAXMIX">   -45</i>
     <i name="WC">    100.00000000</i>
     <i type="int" name="INIMIX">     1</i>
     <i type="int" name="MIXPRE">     1</i>
     <i type="int" name="MREMOVE">     5</i>
    </separator>
   </separator>
   <separator name="electronic dipolcorrection" >
    <i type="logical" name="LDIPOL"> T  </i>
    <i type="logical" name="LMONO"> F  </i>
    <i type="int" name="IDIPOL">     3</i>
    <i name="EPSILON">      1.00000000</i>
    <v name="DIPOL">   -100.00000000   -100.00000000   -100.00000000</v>
    <i name="EFIELD">      0.00000000</i>
   </separator>
  </separator>
  <separator name="grids" >
   <i type="int" name="NGX">    72</i>
   <i type="int" name="NGY">    72</i>
   <i type="int" name="NGZ">   250</i>
   <i type="int" name="NGXF">   144</i>
   <i type="int" name="NGYF">   144</i>
   <i type="int" name="NGZF">   500</i>
   <i type="logical" name="ADDGRID"> F  </i>
  </separator>
  <separator name="ionic" >
   <i type="int" name="NSW">     0</i>
   <i type="int" name="IBRION">    -1</i>
   <i type="int" name="MDALGO">     0</i>
   <i type="int" name="ISIF">     2</i>
   <i name="PSTRESS">      0.00000000</i>
   <i name="EDIFFG">      0.00005000</i>
   <i type="int" name="NFREE">     0</i>
   <i name="POTIM">      0.50000000</i>
   <i name="SMASS">     -3.00000000</i>
   <i name="SCALEE">      1.00000000</i>
  </separator>
  <separator name="ionic md" >
   <i name="TEBEG">      0.00010000</i>
   <i name="TEEND">      0.00010000</i>
   <i type="int" name="NBLOCK">     1</i>
   <i type="int" name="KBLOCK">     1</i>
   <i type="int" name="NPACO">   256</i>
   <i name="APACO">     16.00000000</i>
  </separator>
  <separator name="symmetry" >
   <i type="int" name="ISYM">     2</i>
   <i name="SYMPREC">      0.00001000</i>
  </separator>
  <separator name="dos" >
   <i type="int" name="LORBIT">     0</i>
   <v name="RWIGS">     -1.00000000     -1.00000000     -1.00000000</v>
   <i type="int" name="NEDOS">   301</i>
   <i name="EMIN">     10.00000000</i>
   <i name="EMAX">    -10.00000000</i>
   <i name="EFERMI">      0.00000000</i>
  </separator>
  <separator name="writing" >
   <i type="int" name="NWRITE">     2</i>
   <i type="logical" name="LWAVE"> F  </i>
   <i type="logical" name="LDOWNSAMPLE"> F  </i>
   <i type="logical" name="LCHARG"> T  </i>
   <i type="logical" name="LPARD"> F  </i>
   <i type="logical" name="LVTOT"> F  </i>
   <i type="logical" name="LVHAR"> T  </i>
   <i type="logical" name="LELF"> F  </i>
   <i type="logical" name="LOPTICS"> F  </i>
   <v name="STM">      0.00000000      0.00000000      0.00000000      0.00000000      0.00000000      0.00000000      0.00000000</v>
  </separator>
  <separator name="performance" >
   <i type="int" name="NPAR">     3</i>
   <i type="int" name="NSIM">     4</i>
   <i type="int" name="NBLK">    -1</i>
   <i type="logical" name="LPLANE"> T  </i>
   <i type="logical" name="LSCALAPACK"> T  </i>
   <i type="logical" name="LSCAAWARE"> F  </i>
   <i type="logical" name="LSCALU"> F  </i>
   <i type="logical" name="LASYNC"> F  </i>
   <i type="logical" name="LORBITALREAL"> F  </i>
  </separator>
  <separator name="miscellaneous" >
   <i type="int" name="IDIOT">     3</i>
   <i type="int" name="ISPECIAL">     0</i>
   <i type="logical" name="LMUSIC"> F  </i>
   <v name="POMASS">     24.30500000     16.00000000      1.00000000</v>
   <v name="DARWINR">      0.00000000      0.00000000      0.00000000</v>
   <v name="DARWINV">      1.00000000      1.00000000      1.00000000</v>
   <i type="logical" name="LCORR"> T  </i>
  </separator>
  <i type="logical" name="GGA_COMPAT"> T  </i>
  <i type="logical" name="LBERRY"> F  </i>
  <i type="int" name="ICORELEVEL">     0</i>
  <i type="logical" name="LDAU"> F  </i>
  <i type="int" name="I_CONSTRAINED_M">     0</i>
  <separator name="electronic exchange-correlation" >
   <i type="string" name="GGA">BO</i>
   <i type="int" name="VOSKOWN">     0</i>
   <i type="logical" name="LHFCALC"> F  </i>
   <i type="string" name="PRECFOCK"></i>
   <i type="logical" name="LSYMGRAD"> F  </i>
   <i type="logical" name="LHFONE"> F  </i>
   <i type="logical" name="LRHFCALC"> F  </i>
   <i type="logical" name="LTHOMAS"> F  </i>
   <i type="logical" name="LMODELHF"> F  </i>
   <i name="ENCUT4O">     -1.00000000</i>
   <i type="int" name="EXXOEP">     0</i>
   <i type="int" name="FOURORBIT">     0</i>
   <i name="AEXX">      0.00000000</i>
   <i name="HFALPHA">      0.00000000</i>
   <i name="MCALPHA">      0.00000000</i>
   <i name="ALDAX">      1.00000000</i>
   <i name="AGGAX">      1.00000000</i>
   <i name="ALDAC">      1.00000000</i>
   <i name="AGGAC">      0.00000000</i>
   <i type="int" name="NKREDX">     1</i>
   <i type="int" name="NKREDY">     1</i>
   <i type="int" name="NKREDZ">     1</i>
   <i type="logical" name="SHIFTRED"> F  </i>
   <i type="logical" name="ODDONLY"> F  </i>
   <i type="logical" name="EVENONLY"> F  </i>
   <i type="int" name="LMAXFOCK">     0</i>
   <i type="int" name="NMAXFOCKAE">     0</i>
   <i type="logical" name="LFOCKAEDFT"> F  </i>
   <i name="HFSCREEN">      0.00000000</i>
   <i name="HFSCREENC">      0.00000000</i>
   <i type="int" name="NBANDSGWLOW">     0</i>
  </separator>
  <separator name="vdW DFT" >
   <i type="logical" name="LUSE_VDW"> T  </i>
   <i name="Zab_VDW">     -0.84910000</i>
   <i name="PARAM1">      0.18333333</i>
   <i name="PARAM2">      0.22000000</i>
   <i name="PARAM3">      0.00000000</i>
  </separator>
  <separator name="model GW" >
   <i type="int" name="MODEL_GW">     0</i>
   <i name="MODEL_EPS0">     24.57100561</i>
   <i name="MODEL_ALPHA">      1.00000000</i>
  </separator>
  <separator name="linear response parameters" >
   <i type="logical" name="LEPSILON"> F  </i>
   <i type="logical" name="LRPA"> F  </i>
   <i type="logical" name="LNABLA"> F  </i>
   <i type="logical" name="LVEL"> F  </i>
   <i type="int" name="KINTER">     0</i>
   <i name="CSHIFT">      0.10000000</i>
   <i name="OMEGAMAX">     -1.00000000</i>
   <i name="DEG_THRESHOLD">      0.00200000</i>
   <i name="RTIME">     -0.10000000</i>
   <i name="WPLASMAI">      0.00000000</i>
   <v name="DFIELD">      0.00000000      0.00000000      0.00000000</v>
   <v name="WPLASMA">      0.00000000      0.00000000      0.00000000      0.00000000      0.00000000      0.00000000      0.00000000      0.00000000      0.00000000</v>
  </separator>
  <separator name="orbital magnetization" >
   <i type="logical" name="NUCIND"> F  </i>
   <v name="MAGPOS">      0.00000000      0.00000000      0.00000000</v>
   <i type="logical" name="LNICSALL"> T  </i>
   <i type="logical" name="ORBITALMAG"> F  </i>
   <i type="logical" name="LMAGBLOCH"> F  </i>
   <i type="logical" name="LCHIMAG"> F  </i>
   <i type="logical" name="LGAUGE"> T  </i>
   <i type="int" name="MAGATOM">     0</i>
   <v name="MAGDIPOL">      0.00000000      0.00000000      0.00000000</v>
   <v name="AVECCONST">      0.00000000      0.00000000      0.00000000</v>
  </separator>
  <separator name="response functions" >
   <i type="logical" name="LADDER"> F  </i>
   <i type="logical" name="LRPAFORCE"> F  </i>
   <i type="logical" name="LFXC"> F  </i>
   <i type="logical" name="LHARTREE"> T  </i>
   <i type="int" name="IBSE">     0</i>
   <v type="int" name="KPOINT">    -1     0     0     0</v>
   <i type="logical" name="LTCTE"> F  </i>
   <i type="logical" name="LTETE"> F  </i>
   <i type="logical" name="LTRIPLET"> F  </i>
   <i type="logical" name="LFXCEPS"> F  </i>
   <i type="logical" name="LFXHEG"> F  </i>
   <i type="int" name="NATURALO">     2</i>
   <i type="logical" name="L2ORDER"> F  </i>
   <i type="logical" name="LMP2LT"> F  </i>
   <i type="logical" name="LUSEW"> F  </i>
   <i name="ENCUTGW">     -2.00000000</i>
   <i name="ENCUTGWSOFT">     -2.00000000</i>
   <i name="ENCUTLF">     -1.00000000</i>
   <i type="int" name="LMAXMP2">    -1</i>
   <i name="SCISSOR">      0.00000000</i>
   <i type="int" name="NOMEGA">     0</i>
   <i type="int" name="NOMEGAR">     0</i>
   <i type="int" name="NBANDSGW">    -1</i>
   <i type="int" name="NBANDSO">    -1</i>
   <i type="int" name="NBANDSV">    -1</i>
   <i type="int" name="NELM">   300</i>
   <i type="int" name="NELMHF">     1</i>
   <i type="int" name="DIM">     3</i>
   <i type="int" name="ANTIRES">     0</i>
   <i name="OMEGAMAX">    -30.00000000</i>
   <i name="OMEGAMIN">    -30.00000000</i>
   <i name="OMEGATL">   -200.00000000</i>
   <i type="int" name="OMEGAGRID">   140</i>
   <i name="CSHIFT">     -0.10000000</i>
   <i type="logical" name="SELFENERGY"> F  </i>
   <i type="logical" name="LSPECTRAL"> F  </i>
   <i type="logical" name="LSPECTRALGW"> F  </i>
   <i type="logical" name="LSINGLES"> F  </i>
   <i type="logical" name="LFERMIGW"> F  </i>
   <i type="logical" name="ODDONLYGW"> F  </i>
   <i type="logical" name="EVENONLYGW"> F  </i>
   <i type="int" name="NKREDLFX">     1</i>
   <i type="int" name="NKREDLFY">     1</i>
   <i type="int" name="NKREDLFZ">     1</i>
   <i type="int" name="MAXMEM">  2800</i>
   <i type="int" name="TELESCOPE">     0</i>
   <i type="int" name="TAUPAR">     1</i>
   <i type="int" name="OMEGAPAR">    -1</i>
   <i name="LAMBDA">      1.00000000</i>
  </separator>
  <separator name="External order field" >
   <i name="OFIELD_KAPPA">      0.00000000</i>
   <v name="OFIELD_K">      0.00000000      0.00000000      0.00000000</v>
   <i name="OFIELD_Q6_NEAR">      0.00000000</i>
   <i name="OFIELD_Q6_FAR">      0.00000000</i>
   <i name="OFIELD_A">      0.00000000</i>
  </separator>
 </parameters>
 <atominfo>
  <atoms>      63 </atoms>
  <types>       3 </types>
  <array name="atoms" >
   <dimension dim="1">ion</dimension>
   <field type="string">element</field>
   <field type="int">atomtype</field>
   <set>
    <rc><c>Mg</c><c>   1</c></rc>
    <rc><c>Mg</c><c>   1</c></rc>
    <rc><c>Mg</c><c>   1</c></rc>
    <rc><c>Mg</c><c>   1</c></rc>
    <rc><c>Mg</c><c>   1</c></rc>
    <rc><c>Mg</c><c>   1</c></rc>
    <rc><c>Mg</c><c>   1</c></rc>
    <rc><c>Mg</c><c>   1</c></rc>
    <rc><c>Mg</c><c>   1</c></rc>
    <rc><c>Mg</c><c>   1</c></rc>
    <rc><c>Mg</c><c>   1</c></rc>
    <rc><c>Mg</c><c>   1</c></rc>
    <rc><c>Mg</c><c>   1</c></rc>
    <rc><c>Mg</c><c>   1</c></rc>
    <rc><c>Mg</c><c>   1</c></rc>
    <rc><c>Mg</c><c>   1</c></rc>
    <rc><c>Mg</c><c>   1</c></rc>
    <rc><c>Mg</c><c>   1</c></rc>
    <rc><c>Mg</c><c>   1</c></rc>
    <rc><c>Mg</c><c>   1</c></rc>
    <rc><c>Mg</c><c>   1</c></rc>
    <rc><c>Mg</c><c>   1</c></rc>
    <rc><c>Mg</c><c>   1</c></rc>
    <rc><c>Mg</c><c>   1</c></rc>
    <rc><c>Mg</c><c>   1</c></rc>
    <rc><c>Mg</c><c>   1</c></rc>
    <rc><c>Mg</c><c>   1</c></rc>
    <rc><c>Mg</c><c>   1</c></rc>
    <rc><c>Mg</c><c>   1</c></rc>
    <rc><c>Mg</c><c>   1</c></rc>
    <rc><c>Mg</c><c>   1</c></rc>
    <rc><c>Mg</c><c>   1</c></rc>
    <rc><c>Mg</c><c>   1</c></rc>
    <rc><c>Mg</c><c>   1</c></rc>
    <rc><c>Mg</c><c>   1</c></rc>
    <rc><c>Mg</c><c>   1</c></rc>
    <rc><c>Mg</c><c>   1</c></rc>
    <rc><c>Mg</c><c>   1</c></rc>
    <rc><c>Mg</c><c>   1</c></rc>
    <rc><c>Mg</c><c>   1</c></rc>
    <rc><c>Mg</c><c>   1</c></rc>
    <rc><c>Mg</c><c>   1</c></rc>
    <rc><c>Mg</c><c>   1</c></rc>
    <rc><c>Mg</c><c>   1</c></rc>
    <rc><c>Mg</c><c>   1</c></rc>
    <rc><c>O </c><c>   2</c></rc>
    <rc><c>O </c><c>   2</c></rc>
    <rc><c>O </c><c>   2</c></rc>
    <rc><c>O </c><c>   2</c></rc>
    <rc><c>O </c><c>   2</c></rc>
    <rc><c>O </c><c>   2</c></rc>
    <rc><c>H </c><c>   3</c></rc>
    <rc><c>H </c><c>   3</c></rc>
    <rc><c>H </c><c>   3</c></rc>
    <rc><c>H </c><c>   3</c></rc>
    <rc><c>H </c><c>   3</c></rc>
    <rc><c>H </c><c>   3</c></rc>
    <rc><c>H </c><c>   3</c></rc>
    <rc><c>H </c><c>   3</c></rc>
    <rc><c>H </c><c>   3</c></rc>
    <rc><c>H </c><c>   3</c></rc>
    <rc><c>H </c><c>   3</c></rc>
    <rc><c>H </c><c>   3</c></rc>
   </set>
  </array>
  <array name="atomtypes" >
   <dimension dim="1">type</dimension>
   <field type="int">atomspertype</field>
   <field type="string">element</field>
   <field>mass</field>
   <field>valence</field>
   <field type="string">pseudopotential</field>
   <set>
    <rc><c>  45</c><c>Mg</c><c>     24.30500000</c><c>      2.00000000</c><c>  PAW_PBE Mg 13Apr2007                  </c></rc>
    <rc><c>   6</c><c>O </c><c>     16.00000000</c><c>      6.00000000</c><c>  PAW_PBE O 08Apr2002                   </c></rc>
    <rc><c>  12</c><c>H </c><c>      1.00000000</c><c>      1.00000000</c><c>  PAW_PBE H 15Jun2001                   </c></rc>
   </set>
  </array>
 </atominfo>
 <structure name="initialpos" >
  <crystal>
   <varray name="basis" >
    <v>       9.55575275       0.00000000       0.00000000 </v>
    <v>      -4.77787638       8.27552464       0.00000000 </v>
    <v>       0.00000000       0.00000000      32.62509537 </v>
   </varray>
   <i name="volume">   2579.95558872 </i>
   <varray name="rec_basis" >
    <v>       0.10464900       0.06041913       0.00000000 </v>
    <v>       0.00000000       0.12083826       0.00000000 </v>
    <v>       0.00000000       0.00000000       0.03065125 </v>
   </varray>
  </crystal>
  <varray name="positions" >
   <v>       0.00000000       0.00000000       0.00000000 </v>
   <v>       0.99693465       0.99847887       0.15840122 </v>
   <v>       0.99794054       0.00356768       0.33119919 </v>
   <v>       0.00000001       0.33333336       0.00000000 </v>
   <v>       0.99832380       0.33366384       0.15741446 </v>
   <v>       0.98697691       0.33167292       0.31129262 </v>
   <v>       0.00000002       0.66666672       0.00000000 </v>
   <v>       0.99676519       0.66579223       0.15797047 </v>
   <v>       0.99821338       0.67301081       0.31492761 </v>
   <v>       0.33333334       0.00000000       0.00000000 </v>
   <v>       0.33058778       0.99859322       0.15753391 </v>
   <v>       0.32464423       0.99753620       0.31043188 </v>
   <v>       0.33333335       0.33333336       0.00000000 </v>
   <v>       0.33060643       0.33137350       0.15690501 </v>
   <v>       0.31604887       0.32148905       0.31115536 </v>
   <v>       0.33333336       0.66666672       0.00000000 </v>
   <v>       0.33030313       0.66615547       0.15812306 </v>
   <v>       0.31356087       0.66764894       0.32994107 </v>
   <v>       0.66666668       0.00000000       0.00000000 </v>
   <v>       0.66456853       0.99768131       0.15779968 </v>
   <v>       0.66340840       0.00687347       0.31406820 </v>
   <v>       0.66666668       0.33333336       0.00000000 </v>
   <v>       0.66462588       0.33454177       0.15870709 </v>
   <v>       0.65757909       0.32213990       0.32671901 </v>
   <v>       0.66666670       0.66666672       0.00000000 </v>
   <v>       0.66662121       0.66645563       0.15894481 </v>
   <v>       0.66281747       0.67379193       0.32725367 </v>
   <v>       0.11111113       0.22222222       0.07982145 </v>
   <v>       0.10375180       0.21894099       0.23548994 </v>
   <v>       0.11111114       0.55555561       0.07982145 </v>
   <v>       0.11068414       0.55766656       0.23681435 </v>
   <v>       0.11111116       0.88888894       0.07982145 </v>
   <v>       0.10424758       0.88747158       0.23538937 </v>
   <v>       0.44444450       0.22222222       0.07982145 </v>
   <v>       0.44263202       0.22359951       0.23588465 </v>
   <v>       0.44444450       0.55555561       0.07982145 </v>
   <v>       0.44081606       0.55463101       0.23479980 </v>
   <v>       0.44444451       0.88888894       0.07982145 </v>
   <v>       0.44065093       0.88297739       0.23655460 </v>
   <v>       0.77777779       0.22222222       0.07982145 </v>
   <v>       0.77082148       0.22008206       0.23480151 </v>
   <v>       0.77777781       0.55555561       0.07982145 </v>
   <v>       0.76733451       0.54994421       0.24155497 </v>
   <v>       0.77777784       0.88888894       0.07982145 </v>
   <v>       0.77492696       0.88445031       0.24079821 </v>
   <v>       0.99539299       0.00482879       0.39593905 </v>
   <v>       0.26723437       0.97189907       0.41554480 </v>
   <v>       0.90951261       0.23846037       0.41532082 </v>
   <v>       0.62663325       0.35997777       0.38900865 </v>
   <v>       0.62560311       0.63201714       0.38797327 </v>
   <v>       0.36394281       0.66756506       0.39212692 </v>
   <v>       0.97532284       0.08784288       0.40862463 </v>
   <v>       0.08908999       0.00626146       0.40949018 </v>
   <v>       0.36736136       0.07513338       0.41151651 </v>
   <v>       0.24474148       0.92155124       0.38793614 </v>
   <v>       0.00646258       0.34507691       0.41263589 </v>
   <v>       0.86015069       0.21854237       0.38752717 </v>
   <v>       0.62599464       0.46809498       0.39272592 </v>
   <v>       0.70471823       0.35932960       0.40826925 </v>
   <v>       0.71746105       0.71137708       0.40401913 </v>
   <v>       0.42739146       0.54918500       0.32175810 </v>
   <v>       0.36891091       0.75289025       0.40963059 </v>
   <v>       0.46510821       0.65866868       0.39637768 </v>
  </varray>
  <varray name="selective"  type="logical" >
   <v type="logical" >  F  F  F </v>
   <v type="logical" >  T  T  T </v>
   <v type="logical" >  T  T  T </v>
   <v type="logical" >  F  F  F </v>
   <v type="logical" >  T  T  T </v>
   <v type="logical" >  T  T  T </v>
   <v type="logical" >  F  F  F </v>
   <v type="logical" >  T  T  T </v>
   <v type="logical" >  T  T  T </v>
   <v type="logical" >  F  F  F </v>
   <v type="logical" >  T  T  T </v>
   <v type="logical" >  T  T  T </v>
   <v type="logical" >  F  F  F </v>
   <v type="logical" >  T  T  T </v>
   <v type="logical" >  T  T  T </v>
   <v type="logical" >  F  F  F </v>
   <v type="logical" >  T  T  T </v>
   <v type="logical" >  T  T  T </v>
   <v type="logical" >  F  F  F </v>
   <v type="logical" >  T  T  T </v>
   <v type="logical" >  T  T  T </v>
   <v type="logical" >  F  F  F </v>
   <v type="logical" >  T  T  T </v>
   <v type="logical" >  T  T  T </v>
   <v type="logical" >  F  F  F </v>
   <v type="logical" >  T  T  T </v>
   <v type="logical" >  T  T  T </v>
   <v type="logical" >  F  F  F </v>
   <v type="logical" >  T  T  T </v>
   <v type="logical" >  F  F  F </v>
   <v type="logical" >  T  T  T </v>
   <v type="logical" >  F  F  F </v>
   <v type="logical" >  T  T  T </v>
   <v type="logical" >  F  F  F </v>
   <v type="logical" >  T  T  T </v>
   <v type="logical" >  F  F  F </v>
   <v type="logical" >  T  T  T </v>
   <v type="logical" >  F  F  F </v>
   <v type="logical" >  T  T  T </v>
   <v type="logical" >  F  F  F </v>
   <v type="logical" >  T  T  T </v>
   <v type="logical" >  F  F  F </v>
   <v type="logical" >  T  T  T </v>
   <v type="logical" >  F  F  F </v>
   <v type="logical" >  T  T  T </v>
   <v type="logical" >  T  T  T </v>
   <v type="logical" >  T  T  T </v>
   <v type="logical" >  T  T  T </v>
   <v type="logical" >  T  T  T </v>
   <v type="logical" >  T  T  T </v>
   <v type="logical" >  T  T  T </v>
   <v type="logical" >  T  T  T </v>
   <v type="logical" >  T  T  T </v>
   <v type="logical" >  T  T  T </v>
   <v type="logical" >  T  T  T </v>
   <v type="logical" >  T  T  T </v>
   <v type="logical" >  T  T  T </v>
   <v type="logical" >  T  T  T </v>
   <v type="logical" >  T  T  T </v>
   <v type="logical" >  T  T  T </v>
   <v type="logical" >  T  T  T </v>
   <v type="logical" >  T  T  T </v>
   <v type="logical" >  T  T  T </v>
  </varray>
  <nose>
   <v>      -3.00000000       0.00000000       0.00010000       0.00010000 </v>
  </nose>
 </structure>
 <calculation>
  <scstep>
   <time name="diag">    0.48    0.48</time>
   <time name="diis">    1.05    1.05</time>
   <time name="orth">    0.07    0.07</time>
   <time name="total">    7.50    7.67</time>
   <dipole>
    <v name="dipole">      0.00000000       0.00000000      -0.00038658 </v>
    <i name="Tr[quadrupol]">  -1916.22182944 </i>
    <i name="Echarged">      0.00000000 </i>
    <i name="Edipol_quadrupol">      0.00000000 </i>
    <i name="Eion">      0.00000000 </i>
   </dipole>
   <energy>
    <i name="alphaZ">     63.16499471 </i>
    <i name="ewald">  12963.24845521 </i>
    <i name="hartreedc"> -16190.52581449 </i>
    <i name="XCdc">  -2051.08778826 </i>
    <i name="pawpsdc">   5135.15659847 </i>
    <i name="pawaedc">  -2719.01140655 </i>
    <i name="eentropy">      0.00000000 </i>
    <i name="bandstr">    211.63002672 </i>
    <i name="atom">   3827.98814510 </i>
    <i name="e_fr_energy">   1240.56321092 </i>
    <i name="e_wo_entrp">   1240.56321092 </i>
    <i name="e_0_energy">   1240.56321092 </i>
   </energy>
  </scstep>
  <scstep>
   <time name="diag">    0.49    0.51</time>
   <time name="diis">    1.05    1.05</time>
   <time name="orth">    0.07    0.07</time>
   <time name="total">    1.61    1.63</time>
   <dipole>
    <v name="dipole">      0.00000000       0.00000000      -0.00038658 </v>
    <i name="Tr[quadrupol]">  -1916.22182944 </i>
    <i name="Echarged">      0.00000000 </i>
    <i name="Edipol_quadrupol">      0.00000000 </i>
    <i name="Eion">      0.00000000 </i>
   </dipole>
   <energy>
    <i name="e_fr_energy">    544.69989959 </i>
    <i name="e_wo_entrp">    544.69989959 </i>
    <i name="e_0_energy">    544.69989959 </i>
   </energy>
  </scstep>
  <scstep>
   <time name="diag">    0.49    0.52</time>
   <time name="diis">    1.06    1.06</time>
   <time name="orth">    0.07    0.07</time>
   <time name="total">    1.63    1.65</time>
   <dipole>
    <v name="dipole">      0.00000000       0.00000000      -0.00038658 </v>
    <i name="Tr[quadrupol]">  -1916.22182944 </i>
    <i name="Echarged">      0.00000000 </i>
    <i name="Edipol_quadrupol">      0.00000000 </i>
    <i name="Eion">      0.00000000 </i>
   </dipole>
   <energy>
    <i name="e_fr_energy">    310.58609319 </i>
    <i name="e_wo_entrp">    310.58609319 </i>
    <i name="e_0_energy">    310.58609319 </i>
   </energy>
  </scstep>
  <scstep>
   <time name="diag">    0.49    0.51</time>
   <time name="diis">    1.06    1.06</time>
   <time name="orth">    0.07    0.07</time>
   <time name="total">    1.62    1.64</time>
   <dipole>
    <v name="dipole">      0.00000000       0.00000000      -0.00038658 </v>
    <i name="Tr[quadrupol]">  -1916.22182944 </i>
    <i name="Echarged">      0.00000000 </i>
    <i name="Edipol_quadrupol">      0.00000000 </i>
    <i name="Eion">      0.00000000 </i>
   </dipole>
   <energy>
    <i name="e_fr_energy">    139.42015385 </i>
    <i name="e_wo_entrp">    139.42015385 </i>
    <i name="e_0_energy">    139.42015385 </i>
   </energy>
  </scstep>
  <scstep>
   <time name="diag">    0.49    0.51</time>
   <time name="diis">    1.06    1.06</time>
   <time name="orth">    0.07    0.07</time>
   <time name="total">    1.62    1.64</time>
   <dipole>
    <v name="dipole">      0.00000000       0.00000000      -0.00038658 </v>
    <i name="Tr[quadrupol]">  -1916.22182944 </i>
    <i name="Echarged">      0.00000000 </i>
    <i name="Edipol_quadrupol">      0.00000000 </i>
    <i name="Eion">      0.00000000 </i>
   </dipole>
   <energy>
    <i name="e_fr_energy">     22.83721578 </i>
    <i name="e_wo_entrp">     22.83721578 </i>
    <i name="e_0_energy">     22.83721578 </i>
   </energy>
  </scstep>
  <scstep>
   <time name="diag">    0.49    0.51</time>
   <time name="diis">    1.05    1.05</time>
   <time name="orth">    0.07    0.07</time>
   <time name="total">    1.62    1.64</time>
   <dipole>
    <v name="dipole">      0.00000000       0.00000000      -0.00038658 </v>
    <i name="Tr[quadrupol]">  -1916.22182944 </i>
    <i name="Echarged">      0.00000000 </i>
    <i name="Edipol_quadrupol">      0.00000000 </i>
    <i name="Eion">      0.00000000 </i>
   </dipole>
   <energy>
    <i name="e_fr_energy">    -42.53686276 </i>
    <i name="e_wo_entrp">    -42.53686276 </i>
    <i name="e_0_energy">    -42.53686276 </i>
   </energy>
  </scstep>
  <scstep>
   <time name="diag">    0.48    0.51</time>
   <time name="diis">    1.05    1.05</time>
   <time name="orth">    0.07    0.07</time>
   <time name="total">    1.61    1.64</time>
   <dipole>
    <v name="dipole">      0.00000000       0.00000000      -0.00038658 </v>
    <i name="Tr[quadrupol]">  -1916.22182944 </i>
    <i name="Echarged">      0.00000000 </i>
    <i name="Edipol_quadrupol">      0.00000000 </i>
    <i name="Eion">      0.00000000 </i>
   </dipole>
   <energy>
    <i name="e_fr_energy">    -70.37408616 </i>
    <i name="e_wo_entrp">    -70.37408616 </i>
    <i name="e_0_energy">    -70.37408616 </i>
   </energy>
  </scstep>
  <scstep>
   <time name="diag">    0.49    0.51</time>
   <time name="diis">    1.05    1.05</time>
   <time name="orth">    0.07    0.07</time>
   <time name="total">    1.61    1.64</time>
   <dipole>
    <v name="dipole">      0.00000000       0.00000000      -0.00038658 </v>
    <i name="Tr[quadrupol]">  -1916.22182944 </i>
    <i name="Echarged">      0.00000000 </i>
    <i name="Edipol_quadrupol">      0.00000000 </i>
    <i name="Eion">      0.00000000 </i>
   </dipole>
   <energy>
    <i name="e_fr_energy">    -78.23939119 </i>
    <i name="e_wo_entrp">    -78.23939119 </i>
    <i name="e_0_energy">    -78.23939119 </i>
   </energy>
  </scstep>
  <scstep>
   <time name="diag">    0.49    0.51</time>
   <time name="diis">    2.73    2.73</time>
   <time name="orth">    0.07    0.07</time>
   <time name="total">    3.29    3.32</time>
   <dipole>
    <v name="dipole">      0.00000000       0.00000000      -0.00038658 </v>
    <i name="Tr[quadrupol]">  -1916.22182944 </i>
    <i name="Echarged">      0.00000000 </i>
    <i name="Edipol_quadrupol">      0.00000000 </i>
    <i name="Eion">      0.00000000 </i>
   </dipole>
   <energy>
    <i name="e_fr_energy">    -80.61549245 </i>
    <i name="e_wo_entrp">    -80.61549245 </i>
    <i name="e_0_energy">    -80.61549245 </i>
   </energy>
  </scstep>
  <scstep>
   <time name="diag">    0.49    0.51</time>
   <time name="diis">    3.20    3.20</time>
   <time name="orth">    0.07    0.07</time>
   <time name="total">    3.76    3.78</time>
   <dipole>
    <v name="dipole">      0.00000000       0.00000000      -0.00038658 </v>
    <i name="Tr[quadrupol]">  -1916.22182944 </i>
    <i name="Echarged">      0.00000000 </i>
    <i name="Edipol_quadrupol">      0.00000000 </i>
    <i name="Eion">      0.00000000 </i>
   </dipole>
   <energy>
    <i name="e_fr_energy">    -80.90465682 </i>
    <i name="e_wo_entrp">    -80.90465682 </i>
    <i name="e_0_energy">    -80.90465682 </i>
   </energy>
  </scstep>
  <scstep>
   <time name="diag">    0.49    0.51</time>
   <time name="diis">    3.10    3.10</time>
   <time name="orth">    0.07    0.07</time>
   <time name="total">    3.67    3.69</time>
   <dipole>
    <v name="dipole">      0.00000000       0.00000000      -0.00038658 </v>
    <i name="Tr[quadrupol]">  -1916.22182944 </i>
    <i name="Echarged">      0.00000000 </i>
    <i name="Edipol_quadrupol">      0.00000000 </i>
    <i name="Eion">      0.00000000 </i>
   </dipole>
   <energy>
    <i name="e_fr_energy">    -80.90456198 </i>
    <i name="e_wo_entrp">    -80.90456198 </i>
    <i name="e_0_energy">    -80.90456198 </i>
   </energy>
  </scstep>
  <scstep>
   <time name="diag">    0.58    0.60</time>
   <time name="diis">    3.32    3.32</time>
   <time name="orth">    0.07    0.07</time>
   <time name="total">    4.11    4.14</time>
   <dipole>
    <v name="dipole">      0.00000000       0.00000000      -0.00038658 </v>
    <i name="Tr[quadrupol]">  -1916.22182944 </i>
    <i name="Echarged">      0.00000000 </i>
    <i name="Edipol_quadrupol">      0.00000000 </i>
    <i name="Eion">      0.00000000 </i>
   </dipole>
   <energy>
    <i name="e_fr_energy">    -80.90710215 </i>
    <i name="e_wo_entrp">    -80.90710215 </i>
    <i name="e_0_energy">    -80.90710215 </i>
   </energy>
  </scstep>
  <scstep>
   <time name="diag">    0.48    0.48</time>
   <time name="diis">    2.58    2.58</time>
   <time name="orth">    0.07    0.07</time>
   <time name="total">    8.32    8.35</time>
   <dipole>
    <v name="dipole">      0.00000000       0.00000000       0.57198229 </v>
    <i name="Tr[quadrupol]">  -1927.22796258 </i>
    <i name="Echarged">      0.00000000 </i>
    <i name="Edipol_quadrupol">      0.00000000 </i>
    <i name="Eion">      0.00000000 </i>
   </dipole>
   <energy>
    <i name="e_fr_energy">    -70.96451264 </i>
    <i name="e_wo_entrp">    -70.96451264 </i>
    <i name="e_0_energy">    -70.96451264 </i>
   </energy>
  </scstep>
  <scstep>
   <time name="diag">    0.47    0.47</time>
   <time name="diis">    2.94    2.94</time>
   <time name="orth">    0.07    0.07</time>
   <time name="total">    8.67    8.70</time>
   <dipole>
    <v name="dipole">      0.00000000       0.00000000      -1.99315789 </v>
    <i name="Tr[quadrupol]">  -1913.30780090 </i>
    <i name="Echarged">      0.00000000 </i>
    <i name="Edipol_quadrupol">      0.00000000 </i>
    <i name="Eion">      0.00000000 </i>
   </dipole>
   <energy>
    <i name="e_fr_energy">    -96.05757608 </i>
    <i name="e_wo_entrp">    -96.05757608 </i>
    <i name="e_0_energy">    -96.05757608 </i>
   </energy>
  </scstep>
  <scstep>
   <time name="diag">    0.48    0.48</time>
   <time name="diis">    2.64    2.64</time>
   <time name="orth">    0.07    0.07</time>
   <time name="total">    8.38    8.40</time>
   <dipole>
    <v name="dipole">      0.00000000       0.00000000       0.13535392 </v>
    <i name="Tr[quadrupol]">  -1925.12722459 </i>
    <i name="Echarged">      0.00000000 </i>
    <i name="Edipol_quadrupol">      0.00000000 </i>
    <i name="Eion">      0.00000000 </i>
   </dipole>
   <energy>
    <i name="e_fr_energy">    -69.62422304 </i>
    <i name="e_wo_entrp">    -69.62422304 </i>
    <i name="e_0_energy">    -69.62422304 </i>
   </energy>
  </scstep>
  <scstep>
   <time name="diag">    0.48    0.48</time>
   <time name="diis">    3.05    3.06</time>
   <time name="orth">    0.07    0.07</time>
   <time name="total">    8.79    8.83</time>
   <dipole>
    <v name="dipole">      0.00000000       0.00000000       0.16349494 </v>
    <i name="Tr[quadrupol]">  -1930.18054088 </i>
    <i name="Echarged">      0.00000000 </i>
    <i name="Edipol_quadrupol">      0.00000000 </i>
    <i name="Eion">      0.00000000 </i>
   </dipole>
   <energy>
    <i name="e_fr_energy">    -69.63215823 </i>
    <i name="e_wo_entrp">    -69.63215823 </i>
    <i name="e_0_energy">    -69.63215823 </i>
   </energy>
  </scstep>
  <scstep>
   <time name="diag">    0.47    0.47</time>
   <time name="diis">    2.44    2.44</time>
   <time name="orth">    0.07    0.07</time>
   <time name="total">    8.20    8.22</time>
   <dipole>
    <v name="dipole">      0.00000000       0.00000000      -0.17411668 </v>
    <i name="Tr[quadrupol]">  -1928.57241174 </i>
    <i name="Echarged">      0.00000000 </i>
    <i name="Edipol_quadrupol">      0.00000000 </i>
    <i name="Eion">      0.00000000 </i>
   </dipole>
   <energy>
    <i name="e_fr_energy">    -69.29330352 </i>
    <i name="e_wo_entrp">    -69.29330352 </i>
    <i name="e_0_energy">    -69.29330352 </i>
   </energy>
  </scstep>
  <scstep>
   <time name="diag">    0.48    0.48</time>
   <time name="diis">    2.81    2.81</time>
   <time name="orth">    0.07    0.07</time>
   <time name="total">    8.56    8.59</time>
   <dipole>
    <v name="dipole">      0.00000000       0.00000000      -0.22672634 </v>
    <i name="Tr[quadrupol]">  -1929.37768918 </i>
    <i name="Echarged">      0.00000000 </i>
    <i name="Edipol_quadrupol">      0.00000000 </i>
    <i name="Eion">      0.00000000 </i>
   </dipole>
   <energy>
    <i name="e_fr_energy">    -69.27332830 </i>
    <i name="e_wo_entrp">    -69.27332830 </i>
    <i name="e_0_energy">    -69.27332830 </i>
   </energy>
  </scstep>
  <scstep>
   <time name="diag">    0.48    0.48</time>
   <time name="diis">    2.52    2.52</time>
   <time name="orth">    0.07    0.07</time>
   <time name="total">    8.35    8.38</time>
   <dipole>
    <v name="dipole">      0.00000000       0.00000000      -0.24608655 </v>
    <i name="Tr[quadrupol]">  -1930.23619550 </i>
    <i name="Echarged">      0.00000000 </i>
    <i name="Edipol_quadrupol">      0.00000000 </i>
    <i name="Eion">      0.00000000 </i>
   </dipole>
   <energy>
    <i name="e_fr_energy">    -69.27243418 </i>
    <i name="e_wo_entrp">    -69.27243418 </i>
    <i name="e_0_energy">    -69.27243418 </i>
   </energy>
  </scstep>
  <scstep>
   <time name="diag">    0.48    0.48</time>
   <time name="diis">    2.71    2.72</time>
   <time name="orth">    0.07    0.07</time>
   <time name="total">    8.46    8.48</time>
   <dipole>
    <v name="dipole">      0.00000000       0.00000000      -0.26350227 </v>
    <i name="Tr[quadrupol]">  -1930.79830532 </i>
    <i name="Echarged">      0.00000000 </i>
    <i name="Edipol_quadrupol">      0.00000000 </i>
    <i name="Eion">      0.00000000 </i>
   </dipole>
   <energy>
    <i name="e_fr_energy">    -69.27184608 </i>
    <i name="e_wo_entrp">    -69.27184608 </i>
    <i name="e_0_energy">    -69.27184608 </i>
   </energy>
  </scstep>
  <scstep>
   <time name="diag">    0.48    0.48</time>
   <time name="diis">    2.64    2.64</time>
   <time name="orth">    0.07    0.07</time>
   <time name="total">    8.38    8.42</time>
   <dipole>
    <v name="dipole">      0.00000000       0.00000000      -0.26701174 </v>
    <i name="Tr[quadrupol]">  -1931.32516217 </i>
    <i name="Echarged">      0.00000000 </i>
    <i name="Edipol_quadrupol">      0.00000000 </i>
    <i name="Eion">      0.00000000 </i>
   </dipole>
   <energy>
    <i name="e_fr_energy">    -69.26728509 </i>
    <i name="e_wo_entrp">    -69.26728509 </i>
    <i name="e_0_energy">    -69.26728509 </i>
   </energy>
  </scstep>
  <scstep>
   <time name="diag">    0.47    0.47</time>
   <time name="diis">    2.72    2.72</time>
   <time name="orth">    0.07    0.07</time>
   <time name="total">    8.47    8.49</time>
   <dipole>
    <v name="dipole">      0.00000000       0.00000000      -0.26200487 </v>
    <i name="Tr[quadrupol]">  -1931.49017996 </i>
    <i name="Echarged">      0.00000000 </i>
    <i name="Edipol_quadrupol">      0.00000000 </i>
    <i name="Eion">      0.00000000 </i>
   </dipole>
   <energy>
    <i name="e_fr_energy">    -69.26293485 </i>
    <i name="e_wo_entrp">    -69.26293485 </i>
    <i name="e_0_energy">    -69.26293485 </i>
   </energy>
  </scstep>
  <scstep>
   <time name="diag">    0.60    0.61</time>
   <time name="diis">    2.29    2.29</time>
   <time name="orth">    0.07    0.07</time>
   <time name="total">    8.40    8.42</time>
   <dipole>
    <v name="dipole">      0.00000000       0.00000000      -0.25709422 </v>
    <i name="Tr[quadrupol]">  -1931.71840917 </i>
    <i name="Echarged">      0.00000000 </i>
    <i name="Edipol_quadrupol">      0.00000000 </i>
    <i name="Eion">      0.00000000 </i>
   </dipole>
   <energy>
    <i name="e_fr_energy">    -69.26110675 </i>
    <i name="e_wo_entrp">    -69.26110675 </i>
    <i name="e_0_energy">    -69.26110675 </i>
   </energy>
  </scstep>
  <scstep>
   <time name="diag">    0.48    0.48</time>
   <time name="diis">    2.05    2.05</time>
   <time name="orth">    0.07    0.07</time>
   <time name="total">    7.80    7.82</time>
   <dipole>
    <v name="dipole">      0.00000000       0.00000000      -0.24914575 </v>
    <i name="Tr[quadrupol]">  -1931.89695781 </i>
    <i name="Echarged">      0.00000000 </i>
    <i name="Edipol_quadrupol">      0.00000000 </i>
    <i name="Eion">      0.00000000 </i>
   </dipole>
   <energy>
    <i name="e_fr_energy">    -69.26248269 </i>
    <i name="e_wo_entrp">    -69.26248269 </i>
    <i name="e_0_energy">    -69.26248269 </i>
   </energy>
  </scstep>
  <scstep>
   <time name="diag">    0.48    0.48</time>
   <time name="diis">    1.97    1.97</time>
   <time name="orth">    0.07    0.07</time>
   <time name="total">    7.72    7.74</time>
   <dipole>
    <v name="dipole">      0.00000000       0.00000000      -0.24259788 </v>
    <i name="Tr[quadrupol]">  -1931.97970751 </i>
    <i name="Echarged">      0.00000000 </i>
    <i name="Edipol_quadrupol">      0.00000000 </i>
    <i name="Eion">      0.00000000 </i>
   </dipole>
   <energy>
    <i name="e_fr_energy">    -69.26280655 </i>
    <i name="e_wo_entrp">    -69.26280655 </i>
    <i name="e_0_energy">    -69.26280655 </i>
   </energy>
  </scstep>
  <scstep>
   <time name="diag">    0.48    0.48</time>
   <time name="diis">    1.92    1.92</time>
   <time name="orth">    0.07    0.07</time>
   <time name="total">    7.67    7.70</time>
   <dipole>
    <v name="dipole">      0.00000000       0.00000000      -0.23779710 </v>
    <i name="Tr[quadrupol]">  -1932.01772185 </i>
    <i name="Echarged">      0.00000000 </i>
    <i name="Edipol_quadrupol">      0.00000000 </i>
    <i name="Eion">      0.00000000 </i>
   </dipole>
   <energy>
    <i name="e_fr_energy">    -69.26264700 </i>
    <i name="e_wo_entrp">    -69.26264700 </i>
    <i name="e_0_energy">    -69.26264700 </i>
   </energy>
  </scstep>
  <scstep>
   <time name="diag">    0.47    0.48</time>
   <time name="diis">    1.77    1.78</time>
   <time name="orth">    0.07    0.07</time>
   <time name="total">    7.53    7.55</time>
   <dipole>
    <v name="dipole">      0.00000000       0.00000000      -0.23653719 </v>
    <i name="Tr[quadrupol]">  -1932.04602759 </i>
    <i name="Echarged">      0.00000000 </i>
    <i name="Edipol_quadrupol">      0.00000000 </i>
    <i name="Eion">      0.00000000 </i>
   </dipole>
   <energy>
    <i name="e_fr_energy">    -69.26265304 </i>
    <i name="e_wo_entrp">    -69.26265304 </i>
    <i name="e_0_energy">    -69.26265304 </i>
   </energy>
  </scstep>
  <scstep>
   <time name="diag">    0.47    0.48</time>
   <time name="diis">    1.65    1.65</time>
   <time name="orth">    0.07    0.07</time>
   <time name="total">    7.40    7.43</time>
   <dipole>
    <v name="dipole">      0.00000000       0.00000000      -0.23573868 </v>
    <i name="Tr[quadrupol]">  -1932.04300945 </i>
    <i name="Echarged">      0.00000000 </i>
    <i name="Edipol_quadrupol">      0.00000000 </i>
    <i name="Eion">      0.00000000 </i>
   </dipole>
   <energy>
    <i name="e_fr_energy">    -69.26267879 </i>
    <i name="e_wo_entrp">    -69.26267879 </i>
    <i name="e_0_energy">    -69.26267879 </i>
   </energy>
  </scstep>
  <scstep>
   <time name="diag">    0.47    0.47</time>
   <time name="diis">    1.59    1.59</time>
   <time name="orth">    0.07    0.07</time>
   <time name="total">    7.35    7.38</time>
   <dipole>
    <v name="dipole">      0.00000000       0.00000000      -0.23549907 </v>
    <i name="Tr[quadrupol]">  -1931.97773627 </i>
    <i name="Echarged">      0.00000000 </i>
    <i name="Edipol_quadrupol">      0.00000000 </i>
    <i name="Eion">      0.00000000 </i>
   </dipole>
   <energy>
    <i name="e_fr_energy">    -69.26270186 </i>
    <i name="e_wo_entrp">    -69.26270186 </i>
    <i name="e_0_energy">    -69.26270186 </i>
   </energy>
  </scstep>
  <scstep>
   <time name="diag">    0.48    0.48</time>
   <time name="diis">    1.53    1.53</time>
   <time name="orth">    0.07    0.07</time>
   <time name="total">    7.32    7.34</time>
   <dipole>
    <v name="dipole">      0.00000000       0.00000000      -0.23544676 </v>
    <i name="Tr[quadrupol]">  -1932.25173897 </i>
    <i name="Echarged">      0.00000000 </i>
    <i name="Edipol_quadrupol">      0.00000000 </i>
    <i name="Eion">      0.00000000 </i>
   </dipole>
   <energy>
    <i name="e_fr_energy">    -69.26272621 </i>
    <i name="e_wo_entrp">    -69.26272621 </i>
    <i name="e_0_energy">    -69.26272621 </i>
   </energy>
  </scstep>
  <scstep>
   <time name="diag">    0.48    0.48</time>
   <time name="diis">    1.47    1.48</time>
   <time name="orth">    0.07    0.07</time>
   <time name="total">    7.24    7.27</time>
   <dipole>
    <v name="dipole">      0.00000000       0.00000000      -0.23603213 </v>
    <i name="Tr[quadrupol]">  -1932.28024337 </i>
    <i name="Echarged">      0.00000000 </i>
    <i name="Edipol_quadrupol">      0.00000000 </i>
    <i name="Eion">      0.00000000 </i>
   </dipole>
   <energy>
    <i name="e_fr_energy">    -69.26275261 </i>
    <i name="e_wo_entrp">    -69.26275261 </i>
    <i name="e_0_energy">    -69.26275261 </i>
   </energy>
  </scstep>
  <scstep>
   <time name="diag">    0.47    0.48</time>
   <time name="diis">    1.68    1.68</time>
   <time name="orth">    0.07    0.07</time>
   <time name="total">    7.53    7.56</time>
   <dipole>
    <v name="dipole">      0.00000000       0.00000000      -0.23633447 </v>
    <i name="Tr[quadrupol]">  -1932.28187088 </i>
    <i name="Echarged">      0.00000000 </i>
    <i name="Edipol_quadrupol">      0.00000000 </i>
    <i name="Eion">      0.00000000 </i>
   </dipole>
   <energy>
    <i name="e_fr_energy">    -69.26273829 </i>
    <i name="e_wo_entrp">    -69.26273829 </i>
    <i name="e_0_energy">    -69.26273829 </i>
   </energy>
  </scstep>
  <scstep>
   <time name="diag">    0.48    0.48</time>
   <time name="diis">    1.83    1.84</time>
   <time name="orth">    0.07    0.07</time>
   <time name="total">    7.59    7.62</time>
   <dipole>
    <v name="dipole">      0.00000000       0.00000000      -0.23658816 </v>
    <i name="Tr[quadrupol]">  -1932.31361436 </i>
    <i name="Echarged">      0.00000000 </i>
    <i name="Edipol_quadrupol">      0.00000000 </i>
    <i name="Eion">      0.00000000 </i>
   </dipole>
   <energy>
    <i name="e_fr_energy">    -69.26270509 </i>
    <i name="e_wo_entrp">    -69.26270509 </i>
    <i name="e_0_energy">    -69.26270509 </i>
   </energy>
  </scstep>
  <scstep>
   <time name="diag">    0.48    0.48</time>
   <time name="diis">    1.95    1.95</time>
   <time name="orth">    0.07    0.07</time>
   <time name="total">    7.69    7.72</time>
   <dipole>
    <v name="dipole">      0.00000000       0.00000000      -0.23686348 </v>
    <i name="Tr[quadrupol]">  -1932.34481883 </i>
    <i name="Echarged">      0.00000000 </i>
    <i name="Edipol_quadrupol">      0.00000000 </i>
    <i name="Eion">      0.00000000 </i>
   </dipole>
   <energy>
    <i name="e_fr_energy">    -69.26269481 </i>
    <i name="e_wo_entrp">    -69.26269481 </i>
    <i name="e_0_energy">    -69.26269481 </i>
   </energy>
  </scstep>
  <scstep>
   <time name="diag">    0.47    0.48</time>
   <time name="diis">    2.25    2.25</time>
   <time name="orth">    0.07    0.07</time>
   <time name="total">    8.30    8.33</time>
   <dipole>
    <v name="dipole">      0.00000000       0.00000000      -0.23699677 </v>
    <i name="Tr[quadrupol]">  -1932.49969946 </i>
    <i name="Echarged">      0.00000000 </i>
    <i name="Edipol_quadrupol">      0.00000000 </i>
    <i name="Eion">      0.00000000 </i>
   </dipole>
   <energy>
    <i name="e_fr_energy">    -69.26266177 </i>
    <i name="e_wo_entrp">    -69.26266177 </i>
    <i name="e_0_energy">    -69.26266177 </i>
   </energy>
  </scstep>
  <scstep>
   <time name="diag">    0.47    0.48</time>
   <time name="diis">    2.16    2.16</time>
   <time name="orth">    0.07    0.07</time>
   <time name="total">    7.77    7.80</time>
   <dipole>
    <v name="dipole">      0.00000000       0.00000000      -0.23701163 </v>
    <i name="Tr[quadrupol]">  -1932.65430672 </i>
    <i name="Echarged">      0.00000000 </i>
    <i name="Edipol_quadrupol">      0.00000000 </i>
    <i name="Eion">      0.00000000 </i>
   </dipole>
   <energy>
    <i name="alphaZ">     65.56954984 </i>
    <i name="ewald">  12963.24845521 </i>
    <i name="hartreedc"> -16426.98831356 </i>
    <i name="XCdc">  -2034.70212841 </i>
    <i name="pawpsdc">   5962.63084562 </i>
    <i name="pawaedc">  -3548.96300387 </i>
    <i name="eentropy">      0.00000000 </i>
    <i name="bandstr">   -878.04620964 </i>
    <i name="atom">   3827.98814510 </i>
    <i name="e_fr_energy">    -69.26265970 </i>
    <i name="e_wo_entrp">    -69.26265970 </i>
    <i name="e_0_energy">    -69.26265970 </i>
   </energy>
  </scstep>
  <structure>
   <crystal>
    <varray name="basis" >
     <v>       9.55575275       0.00000000       0.00000000 </v>
     <v>      -4.77787638       8.27552464       0.00000000 </v>
     <v>       0.00000000       0.00000000      32.62509537 </v>
    </varray>
    <i name="volume">   2579.95558872 </i>
    <varray name="rec_basis" >
     <v>       0.10464900       0.06041913       0.00000000 </v>
     <v>       0.00000000       0.12083826       0.00000000 </v>
     <v>       0.00000000       0.00000000       0.03065125 </v>
    </varray>
   </crystal>
   <varray name="positions" >
    <v>       0.00000000       0.00000000       0.00000000 </v>
    <v>       0.99693465       0.99847887       0.15840122 </v>
    <v>       0.99794054       0.00356768       0.33119919 </v>
    <v>       0.00000001       0.33333336       0.00000000 </v>
    <v>       0.99832380       0.33366384       0.15741446 </v>
    <v>       0.98697691       0.33167292       0.31129262 </v>
    <v>       0.00000002       0.66666672       0.00000000 </v>
    <v>       0.99676519       0.66579223       0.15797047 </v>
    <v>       0.99821338       0.67301081       0.31492761 </v>
    <v>       0.33333334       0.00000000       0.00000000 </v>
    <v>       0.33058778       0.99859322       0.15753391 </v>
    <v>       0.32464423       0.99753620       0.31043188 </v>
    <v>       0.33333335       0.33333336       0.00000000 </v>
    <v>       0.33060643       0.33137350       0.15690501 </v>
    <v>       0.31604887       0.32148905       0.31115536 </v>
    <v>       0.33333336       0.66666672       0.00000000 </v>
    <v>       0.33030313       0.66615547       0.15812306 </v>
    <v>       0.31356087       0.66764894       0.32994107 </v>
    <v>       0.66666668       0.00000000       0.00000000 </v>
    <v>       0.66456853       0.99768131       0.15779968 </v>
    <v>       0.66340840       0.00687347       0.31406820 </v>
    <v>       0.66666668       0.33333336       0.00000000 </v>
    <v>       0.66462588       0.33454177       0.15870709 </v>
    <v>       0.65757909       0.32213990       0.32671901 </v>
    <v>       0.66666670       0.66666672       0.00000000 </v>
    <v>       0.66662121       0.66645563       0.15894481 </v>
    <v>       0.66281747       0.67379193       0.32725367 </v>
    <v>       0.11111113       0.22222222       0.07982145 </v>
    <v>       0.10375180       0.21894099       0.23548994 </v>
    <v>       0.11111114       0.55555561       0.07982145 </v>
    <v>       0.11068414       0.55766656       0.23681435 </v>
    <v>       0.11111116       0.88888894       0.07982145 </v>
    <v>       0.10424758       0.88747158       0.23538937 </v>
    <v>       0.44444450       0.22222222       0.07982145 </v>
    <v>       0.44263202       0.22359951       0.23588465 </v>
    <v>       0.44444450       0.55555561       0.07982145 </v>
    <v>       0.44081606       0.55463101       0.23479980 </v>
    <v>       0.44444451       0.88888894       0.07982145 </v>
    <v>       0.44065093       0.88297739       0.23655460 </v>
    <v>       0.77777779       0.22222222       0.07982145 </v>
    <v>       0.77082148       0.22008206       0.23480151 </v>
    <v>       0.77777781       0.55555561       0.07982145 </v>
    <v>       0.76733451       0.54994421       0.24155497 </v>
    <v>       0.77777784       0.88888894       0.07982145 </v>
    <v>       0.77492696       0.88445031       0.24079821 </v>
    <v>       0.99539299       0.00482879       0.39593905 </v>
    <v>       0.26723437       0.97189907       0.41554480 </v>
    <v>       0.90951261       0.23846037       0.41532082 </v>
    <v>       0.62663325       0.35997777       0.38900865 </v>
    <v>       0.62560311       0.63201714       0.38797327 </v>
    <v>       0.36394281       0.66756506       0.39212692 </v>
    <v>       0.97532284       0.08784288       0.40862463 </v>
    <v>       0.08908999       0.00626146       0.40949018 </v>
    <v>       0.36736136       0.07513338       0.41151651 </v>
    <v>       0.24474148       0.92155124       0.38793614 </v>
    <v>       0.00646258       0.34507691       0.41263589 </v>
    <v>       0.86015069       0.21854237       0.38752717 </v>
    <v>       0.62599464       0.46809498       0.39272592 </v>
    <v>       0.70471823       0.35932960       0.40826925 </v>
    <v>       0.71746105       0.71137708       0.40401913 </v>
    <v>       0.42739146       0.54918500       0.32175810 </v>
    <v>       0.36891091       0.75289025       0.40963059 </v>
    <v>       0.46510821       0.65866868       0.39637768 </v>
   </varray>
  </structure>
  <varray name="forces" >
   <v>       0.02288008      -0.00586334       0.00216067 </v>
   <v>       0.02099991      -0.00619054       0.00466635 </v>
   <v>       0.01156371      -0.00204158       0.00121772 </v>
   <v>      -0.04650526      -0.01745950      -0.03982011 </v>
   <v>       0.00205572       0.00221072      -0.00010988 </v>
   <v>       0.00310452       0.00074594       0.01690063 </v>
   <v>       0.02384291       0.02699965      -0.01600567 </v>
   <v>      -0.01054202       0.01855974      -0.00382781 </v>
   <v>       0.00955016       0.02133790       0.00916066 </v>
   <v>      -0.01628656      -0.02545800      -0.02076290 </v>
   <v>      -0.01004858      -0.00445667      -0.00128583 </v>
   <v>      -0.01450205      -0.01156388       0.01629385 </v>
   <v>      -0.00132994       0.00718281      -0.03837631 </v>
   <v>       0.00845225      -0.02046529      -0.00989740 </v>
   <v>      -0.00434701      -0.00664208       0.00439017 </v>
   <v>      -0.01130748       0.00166352      -0.03068634 </v>
   <v>      -0.01749127       0.01824749      -0.00143838 </v>
   <v>      -0.01252094      -0.00251635       0.00815575 </v>
   <v>      -0.00292579       0.05221815      -0.04365023 </v>
   <v>      -0.00413497      -0.00408555      -0.00327734 </v>
   <v>       0.00363110       0.01181817       0.01925038 </v>
   <v>       0.04923767      -0.03393293      -0.02448989 </v>
   <v>      -0.01050326       0.00573218       0.00088927 </v>
   <v>      -0.00077161       0.00127537       0.01374806 </v>
   <v>      -0.02009130      -0.00253509      -0.04293919 </v>
   <v>       0.01758854       0.00071094      -0.01020790 </v>
   <v>       0.00608213       0.00754844       0.00183833 </v>
   <v>       0.00496058      -0.02372699       0.02051069 </v>
   <v>       0.00340011      -0.00804648       0.00096781 </v>
   <v>       0.01278207       0.01108892       0.03396189 </v>
   <v>       0.00126691       0.00604250       0.00343803 </v>
   <v>      -0.03850558       0.00393457      -0.03873666 </v>
   <v>      -0.02129407       0.00228277       0.01716864 </v>
   <v>      -0.00852268       0.01709545       0.04157063 </v>
   <v>       0.00137228       0.01896594      -0.00426445 </v>
   <v>       0.00900864       0.01643542       0.01092477 </v>
   <v>       0.00813618      -0.00373443       0.00196404 </v>
   <v>      -0.00438419      -0.03617300       0.04523246 </v>
   <v>       0.00078373      -0.00773292      -0.00444451 </v>
   <v>      -0.01344131       0.00514393      -0.01194337 </v>
   <v>      -0.00755377       0.00503028      -0.00473347 </v>
   <v>      -0.03873797       0.00206503       0.07424545 </v>
   <v>      -0.00610671      -0.00553825      -0.01542290 </v>
   <v>       0.01311478      -0.02890017       0.05504739 </v>
   <v>       0.00240547       0.00511353      -0.00600954 </v>
   <v>      -0.00183371      -0.00526669       0.00398946 </v>
   <v>      -0.02569643       0.02160168       0.02230511 </v>
   <v>       0.00746964      -0.00128021       0.02366391 </v>
   <v>      -0.01453022       0.00696364       0.01131552 </v>
   <v>      -0.03563165       0.00862546      -0.00598140 </v>
   <v>       0.05367585      -0.02317135      -0.01279403 </v>
   <v>       0.00434985      -0.00384185      -0.00298649 </v>
   <v>       0.00767269      -0.00211056      -0.01626723 </v>
   <v>      -0.02427531       0.01590330      -0.00300999 </v>
   <v>       0.00706565      -0.02217128       0.01599941 </v>
   <v>       0.01152034      -0.00524997       0.00182903 </v>
   <v>       0.00019956      -0.00282005       0.00450300 </v>
   <v>      -0.01657063       0.00553723      -0.00231356 </v>
   <v>      -0.01185087       0.01919216       0.00872530 </v>
   <v>      -0.02150987       0.02220705      -0.01195162 </v>
   <v>       0.00411074       0.00128989      -0.02771955 </v>
   <v>       0.06940874      -0.02369439       0.00516309 </v>
   <v>       0.07206053      -0.02410044      -0.04584352 </v>
  </varray>
  <varray name="stress" >
   <v>      -5.77512103       0.48392702       0.50722929 </v>
   <v>       0.48392692      -5.40843418       0.08628815 </v>
   <v>       0.50722922       0.08628814       0.29364227 </v>
  </varray>
  <energy>
   <i name="e_fr_energy">    -69.26265970 </i>
   <i name="e_wo_entrp">    -69.26265970 </i>
   <i name="e_0_energy">      0.00000000 </i>
  </energy>
  <time name="totalsc">  246.78  248.49</time>
  <eigenvalues>
   <array>
    <dimension dim="1">band</dimension>
    <dimension dim="2">kpoint</dimension>
    <dimension dim="3">spin</dimension>
    <field>eigene</field>
    <field>occ</field>
    <set>
     <set comment="spin 1">
      <set comment="kpoint 1">
       <r>  -23.5524    1.0000 </r>
       <r>  -23.4114    1.0000 </r>
       <r>  -23.3117    1.0000 </r>
       <r>  -23.2318    1.0000 </r>
       <r>  -23.1115    1.0000 </r>
       <r>  -21.1402    1.0000 </r>
       <r>  -11.6125    1.0000 </r>
       <r>  -11.5517    1.0000 </r>
       <r>  -11.3351    1.0000 </r>
       <r>  -11.0756    1.0000 </r>
       <r>  -10.9492    1.0000 </r>
       <r>   -8.6362    1.0000 </r>
       <r>   -8.5196    1.0000 </r>
       <r>   -8.4922    1.0000 </r>
       <r>   -8.3286    1.0000 </r>
       <r>   -7.7104    1.0000 </r>
       <r>   -7.5979    1.0000 </r>
       <r>   -7.5685    1.0000 </r>
       <r>   -7.0961    1.0000 </r>
       <r>   -6.5649    1.0000 </r>
       <r>   -6.3181    1.0000 </r>
       <r>   -6.2727    1.0000 </r>
       <r>   -6.1211    1.0000 </r>
       <r>   -5.8234    1.0000 </r>
       <r>   -5.7003    1.0000 </r>
       <r>   -5.6009    1.0000 </r>
       <r>   -5.4168    1.0000 </r>
       <r>   -5.4113    1.0000 </r>
       <r>   -5.3990    1.0000 </r>
       <r>   -5.3844    1.0000 </r>
       <r>   -5.3577    1.0000 </r>
       <r>   -5.3130    1.0000 </r>
       <r>   -5.2452    1.0000 </r>
       <r>   -4.9087    1.0000 </r>
       <r>   -4.8812    1.0000 </r>
       <r>   -4.8630    1.0000 </r>
       <r>   -4.8537    1.0000 </r>
       <r>   -4.8006    1.0000 </r>
       <r>   -4.7215    1.0000 </r>
       <r>   -4.7160    1.0000 </r>
       <r>   -4.4515    1.0000 </r>
       <r>   -4.0071    1.0000 </r>
       <r>   -3.9793    1.0000 </r>
       <r>   -3.9363    1.0000 </r>
       <r>   -3.8497    1.0000 </r>
       <r>   -3.8240    1.0000 </r>
       <r>   -3.4284    1.0000 </r>
       <r>   -3.2109    1.0000 </r>
       <r>   -2.8596    1.0000 </r>
       <r>   -2.7974    1.0000 </r>
       <r>   -2.7777    1.0000 </r>
       <r>   -2.7185    1.0000 </r>
       <r>   -2.6701    1.0000 </r>
       <r>   -1.9634    1.0000 </r>
       <r>   -1.8028    1.0000 </r>
       <r>   -1.4348    1.0000 </r>
       <r>   -1.3384    1.0000 </r>
       <r>   -1.3032    1.0000 </r>
       <r>   -1.2686    1.0000 </r>
       <r>   -1.2330    1.0000 </r>
       <r>   -1.2201    1.0000 </r>
       <r>   -1.2156    1.0000 </r>
       <r>   -1.2003    1.0000 </r>
       <r>   -1.1880    1.0000 </r>
       <r>   -1.1752    1.0000 </r>
       <r>   -1.1243    1.0000 </r>
       <r>   -0.9089    1.0000 </r>
       <r>   -0.8916    1.0000 </r>
       <r>   -0.8076    0.6014 </r>
       <r>   -0.6906    0.0000 </r>
       <r>   -0.6629    0.0000 </r>
       <r>   -0.5689    0.0000 </r>
       <r>   -0.4357    0.0000 </r>
       <r>   -0.2640    0.0000 </r>
       <r>   -0.1800    0.0000 </r>
       <r>   -0.0229    0.0000 </r>
       <r>    0.0645    0.0000 </r>
       <r>    0.0898    0.0000 </r>
       <r>    0.1087    0.0000 </r>
       <r>    0.1385    0.0000 </r>
       <r>    0.2587    0.0000 </r>
       <r>    0.3314    0.0000 </r>
       <r>    0.4191    0.0000 </r>
       <r>    0.8085    0.0000 </r>
       <r>    0.8581    0.0000 </r>
       <r>    0.8797    0.0000 </r>
       <r>    0.8836    0.0000 </r>
       <r>    0.9097    0.0000 </r>
       <r>    0.9267    0.0000 </r>
       <r>    0.9424    0.0000 </r>
       <r>    0.9605    0.0000 </r>
       <r>    1.0412    0.0000 </r>
       <r>    1.1505    0.0000 </r>
       <r>    1.1802    0.0000 </r>
       <r>    1.2184    0.0000 </r>
       <r>    1.4211    0.0000 </r>
       <r>    1.4346    0.0000 </r>
       <r>    1.4413    0.0000 </r>
       <r>    1.4665    0.0000 </r>
       <r>    1.5034    0.0000 </r>
       <r>    1.5471    0.0000 </r>
       <r>    1.7173    0.0000 </r>
      </set>
      <set comment="kpoint 2">
       <r>  -23.5510    1.0000 </r>
       <r>  -23.4131    1.0000 </r>
       <r>  -23.3159    1.0000 </r>
       <r>  -23.2256    1.0000 </r>
       <r>  -23.1131    1.0000 </r>
       <r>  -21.1402    1.0000 </r>
       <r>  -11.6105    1.0000 </r>
       <r>  -11.5529    1.0000 </r>
       <r>  -11.3363    1.0000 </r>
       <r>  -11.0738    1.0000 </r>
       <r>  -10.9505    1.0000 </r>
       <r>   -8.6257    1.0000 </r>
       <r>   -8.5254    1.0000 </r>
       <r>   -8.5023    1.0000 </r>
       <r>   -8.3147    1.0000 </r>
       <r>   -7.7045    1.0000 </r>
       <r>   -7.6033    1.0000 </r>
       <r>   -7.3408    1.0000 </r>
       <r>   -6.9537    1.0000 </r>
       <r>   -6.6316    1.0000 </r>
       <r>   -6.4624    1.0000 </r>
       <r>   -6.3259    1.0000 </r>
       <r>   -6.2465    1.0000 </r>
       <r>   -6.1441    1.0000 </r>
       <r>   -5.9535    1.0000 </r>
       <r>   -5.8573    1.0000 </r>
       <r>   -5.8483    1.0000 </r>
       <r>   -5.6908    1.0000 </r>
       <r>   -5.6202    1.0000 </r>
       <r>   -5.5890    1.0000 </r>
       <r>   -5.2935    1.0000 </r>
       <r>   -5.2651    1.0000 </r>
       <r>   -5.1813    1.0000 </r>
       <r>   -4.9210    1.0000 </r>
       <r>   -4.8425    1.0000 </r>
       <r>   -4.5839    1.0000 </r>
       <r>   -4.4478    1.0000 </r>
       <r>   -4.4233    1.0000 </r>
       <r>   -4.3569    1.0000 </r>
       <r>   -4.1640    1.0000 </r>
       <r>   -3.8975    1.0000 </r>
       <r>   -3.8455    1.0000 </r>
       <r>   -3.7510    1.0000 </r>
       <r>   -3.6145    1.0000 </r>
       <r>   -3.2319    1.0000 </r>
       <r>   -3.1990    1.0000 </r>
       <r>   -3.1366    1.0000 </r>
       <r>   -3.0825    1.0000 </r>
       <r>   -3.0434    1.0000 </r>
       <r>   -3.0207    1.0000 </r>
       <r>   -2.9648    1.0000 </r>
       <r>   -2.6581    1.0000 </r>
       <r>   -2.4941    1.0000 </r>
       <r>   -2.4290    1.0000 </r>
       <r>   -2.3630    1.0000 </r>
       <r>   -2.1445    1.0000 </r>
       <r>   -1.8759    1.0000 </r>
       <r>   -1.8382    1.0000 </r>
       <r>   -1.7646    1.0000 </r>
       <r>   -1.6918    1.0000 </r>
       <r>   -1.6618    1.0000 </r>
       <r>   -1.6256    1.0000 </r>
       <r>   -1.5960    1.0000 </r>
       <r>   -1.4788    1.0000 </r>
       <r>   -1.1107    1.0000 </r>
       <r>   -1.0069    1.0000 </r>
       <r>   -0.9764    1.0000 </r>
       <r>   -0.9159    1.0000 </r>
       <r>   -0.7801    0.3950 </r>
       <r>   -0.7692    0.1318 </r>
       <r>   -0.7009   -0.0297 </r>
       <r>   -0.6206    0.0000 </r>
       <r>   -0.3860    0.0000 </r>
       <r>   -0.2299    0.0000 </r>
       <r>   -0.1781    0.0000 </r>
       <r>   -0.1183    0.0000 </r>
       <r>   -0.0863    0.0000 </r>
       <r>    0.0464    0.0000 </r>
       <r>    0.1269    0.0000 </r>
       <r>    0.1716    0.0000 </r>
       <r>    0.2611    0.0000 </r>
       <r>    0.3440    0.0000 </r>
       <r>    0.3840    0.0000 </r>
       <r>    0.4456    0.0000 </r>
       <r>    0.4841    0.0000 </r>
       <r>    0.6340    0.0000 </r>
       <r>    0.7471    0.0000 </r>
       <r>    0.8015    0.0000 </r>
       <r>    0.8834    0.0000 </r>
       <r>    1.0141    0.0000 </r>
       <r>    1.0351    0.0000 </r>
       <r>    1.1045    0.0000 </r>
       <r>    1.1526    0.0000 </r>
       <r>    1.2099    0.0000 </r>
       <r>    1.2423    0.0000 </r>
       <r>    1.2895    0.0000 </r>
       <r>    1.3926    0.0000 </r>
       <r>    1.4840    0.0000 </r>
       <r>    1.5134    0.0000 </r>
       <r>    1.5817    0.0000 </r>
       <r>    1.8042    0.0000 </r>
       <r>    1.8735    0.0000 </r>
      </set>
      <set comment="kpoint 3">
       <r>  -23.5515    1.0000 </r>
       <r>  -23.4131    1.0000 </r>
       <r>  -23.3099    1.0000 </r>
       <r>  -23.2341    1.0000 </r>
       <r>  -23.1101    1.0000 </r>
       <r>  -21.1402    1.0000 </r>
       <r>  -11.6104    1.0000 </r>
       <r>  -11.5526    1.0000 </r>
       <r>  -11.3351    1.0000 </r>
       <r>  -11.0781    1.0000 </r>
       <r>  -10.9478    1.0000 </r>
       <r>   -8.6279    1.0000 </r>
       <r>   -8.5261    1.0000 </r>
       <r>   -8.5060    1.0000 </r>
       <r>   -8.3046    1.0000 </r>
       <r>   -7.7106    1.0000 </r>
       <r>   -7.5999    1.0000 </r>
       <r>   -7.3398    1.0000 </r>
       <r>   -6.9516    1.0000 </r>
       <r>   -6.6443    1.0000 </r>
       <r>   -6.4760    1.0000 </r>
       <r>   -6.3059    1.0000 </r>
       <r>   -6.2500    1.0000 </r>
       <r>   -6.1442    1.0000 </r>
       <r>   -5.9438    1.0000 </r>
       <r>   -5.8672    1.0000 </r>
       <r>   -5.8434    1.0000 </r>
       <r>   -5.6825    1.0000 </r>
       <r>   -5.6101    1.0000 </r>
       <r>   -5.5901    1.0000 </r>
       <r>   -5.3433    1.0000 </r>
       <r>   -5.2577    1.0000 </r>
       <r>   -5.1419    1.0000 </r>
       <r>   -4.9437    1.0000 </r>
       <r>   -4.8349    1.0000 </r>
       <r>   -4.5777    1.0000 </r>
       <r>   -4.4567    1.0000 </r>
       <r>   -4.4245    1.0000 </r>
       <r>   -4.3285    1.0000 </r>
       <r>   -4.1834    1.0000 </r>
       <r>   -3.9118    1.0000 </r>
       <r>   -3.8410    1.0000 </r>
       <r>   -3.7414    1.0000 </r>
       <r>   -3.6123    1.0000 </r>
       <r>   -3.2337    1.0000 </r>
       <r>   -3.2007    1.0000 </r>
       <r>   -3.1389    1.0000 </r>
       <r>   -3.0917    1.0000 </r>
       <r>   -3.0465    1.0000 </r>
       <r>   -3.0210    1.0000 </r>
       <r>   -2.9498    1.0000 </r>
       <r>   -2.6782    1.0000 </r>
       <r>   -2.4876    1.0000 </r>
       <r>   -2.4297    1.0000 </r>
       <r>   -2.3591    1.0000 </r>
       <r>   -2.1364    1.0000 </r>
       <r>   -1.8771    1.0000 </r>
       <r>   -1.8390    1.0000 </r>
       <r>   -1.7774    1.0000 </r>
       <r>   -1.6944    1.0000 </r>
       <r>   -1.6505    1.0000 </r>
       <r>   -1.6413    1.0000 </r>
       <r>   -1.5611    1.0000 </r>
       <r>   -1.4764    1.0000 </r>
       <r>   -1.0899    1.0000 </r>
       <r>   -1.0117    1.0000 </r>
       <r>   -0.9771    1.0000 </r>
       <r>   -0.9257    1.0000 </r>
       <r>   -0.7859    0.4438 </r>
       <r>   -0.7662    0.1143 </r>
       <r>   -0.7244   -0.0259 </r>
       <r>   -0.6206    0.0000 </r>
       <r>   -0.4106    0.0000 </r>
       <r>   -0.2140    0.0000 </r>
       <r>   -0.1647    0.0000 </r>
       <r>   -0.1352    0.0000 </r>
       <r>   -0.0783    0.0000 </r>
       <r>    0.0467    0.0000 </r>
       <r>    0.1203    0.0000 </r>
       <r>    0.1855    0.0000 </r>
       <r>    0.2761    0.0000 </r>
       <r>    0.3414    0.0000 </r>
       <r>    0.3782    0.0000 </r>
       <r>    0.4510    0.0000 </r>
       <r>    0.4748    0.0000 </r>
       <r>    0.6199    0.0000 </r>
       <r>    0.7520    0.0000 </r>
       <r>    0.8270    0.0000 </r>
       <r>    0.8661    0.0000 </r>
       <r>    0.9894    0.0000 </r>
       <r>    1.0538    0.0000 </r>
       <r>    1.1219    0.0000 </r>
       <r>    1.1407    0.0000 </r>
       <r>    1.2132    0.0000 </r>
       <r>    1.2358    0.0000 </r>
       <r>    1.2928    0.0000 </r>
       <r>    1.3968    0.0000 </r>
       <r>    1.4901    0.0000 </r>
       <r>    1.5165    0.0000 </r>
       <r>    1.5734    0.0000 </r>
       <r>    1.7730    0.0000 </r>
       <r>    1.9237    0.0000 </r>
      </set>
[...]
       <r>   -21.7089     0.0000    10.0000 </r>
       <r>   -21.6103     0.0000    10.0000 </r>
       <r>   -21.5117     0.0000    10.0000 </r>
       <r>   -21.4132     0.0000    10.0000 </r>
       <r>   -21.3146     0.0000    10.0000 </r>
       <r>   -21.2161     0.0000    10.0000 </r>
       <r>   -21.1175     0.0000    12.0000 </r>
       <r>   -21.0190     0.0000    12.0000 </r>
       <r>   -20.9204     0.0000    12.0000 </r>
       <r>   -20.8219     0.0000    12.0000 </r>
       <r>   -20.7233     0.0000    12.0000 </r>
       <r>   -20.6248     0.0000    12.0000 </r>
       <r>   -20.5262     0.0000    12.0000 </r>
       <r>   -20.4277     0.0000    12.0000 </r>
       <r>   -20.3291     0.0000    12.0000 </r>
       <r>   -20.2306     0.0000    12.0000 </r>
       <r>   -20.1320     0.0000    12.0000 </r>
       <r>   -20.0335     0.0000    12.0000 </r>
       <r>   -19.9349     0.0000    12.0000 </r>
       <r>   -19.8364     0.0000    12.0000 </r>
       <r>   -19.7378     0.0000    12.0000 </r>
       <r>   -19.6393     0.0000    12.0000 </r>
       <r>   -19.5407     0.0000    12.0000 </r>
       <r>   -19.4422     0.0000    12.0000 </r>
       <r>   -19.3436     0.0000    12.0000 </r>
       <r>   -19.2450     0.0000    12.0000 </r>
       <r>   -19.1465     0.0000    12.0000 </r>
       <r>   -19.0479     0.0000    12.0000 </r>
       <r>   -18.9494     0.0000    12.0000 </r>
       <r>   -18.8508     0.0000    12.0000 </r>
       <r>   -18.7523     0.0000    12.0000 </r>
       <r>   -18.6537     0.0000    12.0000 </r>
       <r>   -18.5552     0.0000    12.0000 </r>
       <r>   -18.4566     0.0000    12.0000 </r>
       <r>   -18.3581     0.0000    12.0000 </r>
       <r>   -18.2595     0.0000    12.0000 </r>
       <r>   -18.1610     0.0000    12.0000 </r>
       <r>   -18.0624     0.0000    12.0000 </r>
       <r>   -17.9639     0.0000    12.0000 </r>
       <r>   -17.8653     0.0000    12.0000 </r>
       <r>   -17.7668     0.0000    12.0000 </r>
       <r>   -17.6682     0.0000    12.0000 </r>
       <r>   -17.5697     0.0000    12.0000 </r>
       <r>   -17.4711     0.0000    12.0000 </r>
       <r>   -17.3726     0.0000    12.0000 </r>
       <r>   -17.2740     0.0000    12.0000 </r>
       <r>   -17.1755     0.0000    12.0000 </r>
       <r>   -17.0769     0.0000    12.0000 </r>
       <r>   -16.9783     0.0000    12.0000 </r>
       <r>   -16.8798     0.0000    12.0000 </r>
       <r>   -16.7812     0.0000    12.0000 </r>
       <r>   -16.6827     0.0000    12.0000 </r>
       <r>   -16.5841     0.0000    12.0000 </r>
       <r>   -16.4856     0.0000    12.0000 </r>
       <r>   -16.3870     0.0000    12.0000 </r>
       <r>   -16.2885     0.0000    12.0000 </r>
       <r>   -16.1899     0.0000    12.0000 </r>
       <r>   -16.0914     0.0000    12.0000 </r>
       <r>   -15.9928     0.0000    12.0000 </r>
       <r>   -15.8943     0.0000    12.0000 </r>
       <r>   -15.7957     0.0000    12.0000 </r>
       <r>   -15.6972     0.0000    12.0000 </r>
       <r>   -15.5986     0.0000    12.0000 </r>
       <r>   -15.5001     0.0000    12.0000 </r>
       <r>   -15.4015     0.0000    12.0000 </r>
       <r>   -15.3030     0.0000    12.0000 </r>
       <r>   -15.2044     0.0000    12.0000 </r>
       <r>   -15.1059     0.0000    12.0000 </r>
       <r>   -15.0073     0.0000    12.0000 </r>
       <r>   -14.9087     0.0000    12.0000 </r>
       <r>   -14.8102     0.0000    12.0000 </r>
       <r>   -14.7116     0.0000    12.0000 </r>
       <r>   -14.6131     0.0000    12.0000 </r>
       <r>   -14.5145     0.0000    12.0000 </r>
       <r>   -14.4160     0.0000    12.0000 </r>
       <r>   -14.3174     0.0000    12.0000 </r>
       <r>   -14.2189     0.0000    12.0000 </r>
       <r>   -14.1203     0.0000    12.0000 </r>
       <r>   -14.0218     0.0000    12.0000 </r>
       <r>   -13.9232     0.0000    12.0000 </r>
       <r>   -13.8247     0.0000    12.0000 </r>
       <r>   -13.7261     0.0000    12.0000 </r>
       <r>   -13.6276     0.0000    12.0000 </r>
       <r>   -13.5290     0.0000    12.0000 </r>
       <r>   -13.4305     0.0000    12.0000 </r>
       <r>   -13.3319     0.0000    12.0000 </r>
       <r>   -13.2334     0.0000    12.0000 </r>
       <r>   -13.1348     0.0000    12.0000 </r>
       <r>   -13.0363     0.0000    12.0000 </r>
       <r>   -12.9377     0.0000    12.0000 </r>
       <r>   -12.8392     0.0000    12.0000 </r>
       <r>   -12.7406     0.0000    12.0000 </r>
       <r>   -12.6420     0.0000    12.0000 </r>
       <r>   -12.5435     0.0000    12.0000 </r>
       <r>   -12.4449     0.0000    12.0000 </r>
       <r>   -12.3464     0.0000    12.0000 </r>
       <r>   -12.2478     0.0000    12.0000 </r>
       <r>   -12.1493     0.0000    12.0000 </r>
       <r>   -12.0507     0.0000    12.0000 </r>
       <r>   -11.9522     0.0000    12.0000 </r>
       <r>   -11.8536     0.0000    12.0000 </r>
       <r>   -11.7551     0.0000    12.0000 </r>
       <r>   -11.6565     0.0000    12.0000 </r>
       <r>   -11.5580     0.0000    14.0000 </r>
       <r>   -11.4594     0.0000    16.0000 </r>
       <r>   -11.3609     0.0000    16.0000 </r>
       <r>   -11.2623     0.0000    18.0000 </r>
       <r>   -11.1638     0.0000    18.0000 </r>
       <r>   -11.0652     0.0000    20.0000 </r>
       <r>   -10.9667     0.0000    20.0000 </r>
       <r>   -10.8681     0.0000    22.0000 </r>
       <r>   -10.7696     0.0000    22.0000 </r>
       <r>   -10.6710     0.0000    22.0000 </r>
       <r>   -10.5725     0.0000    22.0000 </r>
       <r>   -10.4739     0.0000    22.0000 </r>
       <r>   -10.3753     0.0000    22.0000 </r>
       <r>   -10.2768     0.0000    22.0000 </r>
       <r>   -10.1782     0.0000    22.0000 </r>
       <r>   -10.0797     0.0000    22.0000 </r>
       <r>    -9.9811     0.0000    22.0000 </r>
       <r>    -9.8826     0.0000    22.0000 </r>
       <r>    -9.7840     0.0000    22.0000 </r>
       <r>    -9.6855     0.0000    22.0000 </r>
       <r>    -9.5869     0.0000    22.0000 </r>
       <r>    -9.4884     0.0000    22.0000 </r>
       <r>    -9.3898     0.0000    22.0000 </r>
       <r>    -9.2913     0.0000    22.0000 </r>
       <r>    -9.1927     0.0000    22.0000 </r>
       <r>    -9.0942     0.0000    22.0000 </r>
       <r>    -8.9956     0.0000    22.0000 </r>
       <r>    -8.8971     0.0000    22.0000 </r>
       <r>    -8.7985     0.0000    22.0000 </r>
       <r>    -8.7000     0.0000    22.0000 </r>
       <r>    -8.6014     0.0000    24.0000 </r>
       <r>    -8.5029   141.5485    26.3374 </r>
       <r>    -8.4043     0.0000    28.0000 </r>
       <r>    -8.3057   116.2584    29.3642 </r>
       <r>    -8.2072     0.0000    30.0000 </r>
       <r>    -8.1086     0.0000    30.0000 </r>
       <r>    -8.0101     0.0000    30.0000 </r>
       <r>    -7.9115     0.0000    30.0000 </r>
       <r>    -7.8130     0.0000    30.0000 </r>
       <r>    -7.7144     0.0000    30.0000 </r>
       <r>    -7.6159     0.0000    32.0000 </r>
       <r>    -7.5173     1.3130    34.0336 </r>
       <r>    -7.4188     3.8431    34.2876 </r>
       <r>    -7.3202     7.9954    34.8351 </r>
       <r>    -7.2217     5.2914    35.4898 </r>
       <r>    -7.1231     2.5873    35.8780 </r>
       <r>    -7.0246     4.6558    36.1665 </r>
       <r>    -6.9260    18.3821    37.2429 </r>
       <r>    -6.8275     0.0000    38.0000 </r>
       <r>    -6.7289     7.4639    38.3608 </r>
       <r>    -6.6304    18.3518    39.5339 </r>
       <r>    -6.5318     8.7970    40.6102 </r>
       <r>    -6.4333     7.1336    41.5891 </r>
       <r>    -6.3347    37.4552    42.7732 </r>
       <r>    -6.2362     9.3703    45.4608 </r>
       <r>    -6.1376     6.9668    47.3813 </r>
       <r>    -6.0390    12.9844    48.2840 </r>
       <r>    -5.9405    16.0711    49.9174 </r>
       <r>    -5.8419    11.1214    52.5616 </r>
       <r>    -5.7434     6.0635    53.3989 </r>
       <r>    -5.6448     6.6660    55.3060 </r>
       <r>    -5.5463    25.7719    58.2314 </r>
       <r>    -5.4477     7.0514    59.8488 </r>
       <r>    -5.3492    42.2726    60.9804 </r>
       <r>    -5.2506    25.5659    62.8576 </r>
       <r>    -5.1521    10.2660    64.6662 </r>
       <r>    -5.0535     6.9727    65.6040 </r>
       <r>    -4.9550     0.9226    65.9931 </r>
       <r>    -4.8564    21.6966    68.1523 </r>
       <r>    -4.7579    11.4112    69.7926 </r>
       <r>    -4.6593     9.5555    70.6121 </r>
       <r>    -4.5608    19.5674    72.8987 </r>
       <r>    -4.4622    25.1727    74.8125 </r>
       <r>    -4.3637    16.4686    76.2841 </r>
       <r>    -4.2651    13.8110    78.0275 </r>
       <r>    -4.1666    17.7988    79.0264 </r>
       <r>    -4.0680     3.3163    80.3433 </r>
       <r>    -3.9695    18.6613    81.3443 </r>
       <r>    -3.8709    20.7464    83.6393 </r>
       <r>    -3.7723     7.4991    84.7004 </r>
       <r>    -3.6738    13.4329    86.3343 </r>
       <r>    -3.5752     8.3220    87.1505 </r>
       <r>    -3.4767     7.0797    87.9094 </r>
       <r>    -3.3781     6.6271    88.5658 </r>
       <r>    -3.2796     6.9324    89.2340 </r>
       <r>    -3.1810    16.5290    91.3847 </r>
       <r>    -3.0825    18.0891    93.2685 </r>
       <r>    -2.9839    34.1689    95.7739 </r>
       <r>    -2.8854    26.6151    99.0273 </r>
       <r>    -2.7868    12.6368   100.9125 </r>
       <r>    -2.6883    17.6182   101.9639 </r>
       <r>    -2.5897    12.1583   104.0352 </r>
       <r>    -2.4912    22.7577   106.2842 </r>
       <r>    -2.3926     7.5940   107.4453 </r>
       <r>    -2.2941     4.1566   109.1409 </r>
       <r>    -2.1955     3.1264   109.4997 </r>
       <r>    -2.0970     5.5436   111.1879 </r>
       <r>    -1.9984    15.7558   112.1675 </r>
       <r>    -1.8999    32.4228   114.4939 </r>
       <r>    -1.8013    30.1594   117.5586 </r>
       <r>    -1.7028    30.5239   120.6016 </r>
       <r>    -1.6042    23.4696   123.1081 </r>
       <r>    -1.5056    23.0929   125.3194 </r>
       <r>    -1.4071    12.6155   127.0103 </r>
       <r>    -1.3085    10.0399   128.1220 </r>
       <r>    -1.2100    10.5292   129.0614 </r>
       <r>    -1.1114    35.9046   131.0188 </r>
       <r>    -1.0129    33.8917   133.6520 </r>
       <r>    -0.9143    30.8841   135.8858 </r>
       <r>    -0.8158    20.5365   137.4319 </r>
       <r>    -0.7172    31.8558   141.1976 </r>
       <r>    -0.6187    22.6743   143.6484 </r>
       <r>    -0.5201     7.8961   144.6502 </r>
       <r>    -0.4216    24.2749   145.7863 </r>
       <r>    -0.3230    10.0833   147.4382 </r>
       <r>    -0.2245    14.6754   149.0052 </r>
       <r>    -0.1259    27.4679   151.2234 </r>
       <r>    -0.0274     6.1606   153.7421 </r>
       <r>     0.0712    40.6718   155.9509 </r>
       <r>     0.1697    60.2863   159.6671 </r>
       <r>     0.2683    53.9844   161.6160 </r>
       <r>     0.3668    13.8576   162.9466 </r>
       <r>     0.4654    25.8408   165.6712 </r>
       <r>     0.5640    17.9708   168.1043 </r>
       <r>     0.6625    24.3428   169.8930 </r>
       <r>     0.7611    35.0828   171.9037 </r>
       <r>     0.8596    19.7390   174.6622 </r>
       <r>     0.9582    15.1662   176.5459 </r>
       <r>     1.0567    24.2435   179.0315 </r>
       <r>     1.1553    65.0340   182.1039 </r>
       <r>     1.2538    32.8675   186.0694 </r>
       <r>     1.3524    31.5012   189.6701 </r>
       <r>     1.4509    44.7633   193.0840 </r>
       <r>     1.5495    35.0599   197.2921 </r>
       <r>     1.6480    12.7607   199.8906 </r>
       <r>     1.7466     5.7316   200.4953 </r>
       <r>     1.8451     3.9205   202.2506 </r>
       <r>     1.9437    14.4918   203.1607 </r>
       <r>     2.0422     0.0000   204.0000 </r>
       <r>     2.1408     0.0000   204.0000 </r>
       <r>     2.2393     0.0000   204.0000 </r>
       <r>     2.3379     0.0000   204.0000 </r>
       <r>     2.4364     0.0000   204.0000 </r>
       <r>     2.5350     0.0000   204.0000 </r>
       <r>     2.6335     0.0000   204.0000 </r>
       <r>     2.7321     0.0000   204.0000 </r>
       <r>     2.8307     0.0000   204.0000 </r>
       <r>     2.9292     0.0000   204.0000 </r>
       <r>     3.0278     0.0000   204.0000 </r>
       <r>     3.1263     0.0000   204.0000 </r>
       <r>     3.2249     0.0000   204.0000 </r>
       <r>     3.3234     0.0000   204.0000 </r>
       <r>     3.4220     0.0000   204.0000 </r>
       <r>     3.5205     0.0000   204.0000 </r>
       <r>     3.6191     0.0000   204.0000 </r>
       <r>     3.7176     0.0000   204.0000 </r>
       <r>     3.8162     0.0000   204.0000 </r>
       <r>     3.9147     0.0000   204.0000 </r>
       <r>     4.0133     0.0000   204.0000 </r>
      </set>
     </set>
    </array>
   </total>
  </dos>
 </calculation>
 <structure name="finalpos" >
  <crystal>
   <varray name="basis" >
    <v>       9.55575275       0.00000000       0.00000000 </v>
    <v>      -4.77787638       8.27552464       0.00000000 </v>
    <v>       0.00000000       0.00000000      32.62509537 </v>
   </varray>
   <i name="volume">   2579.95558872 </i>
   <varray name="rec_basis" >
    <v>       0.10464900       0.06041913       0.00000000 </v>
    <v>       0.00000000       0.12083826       0.00000000 </v>
    <v>       0.00000000       0.00000000       0.03065125 </v>
   </varray>
  </crystal>
  <varray name="positions" >
   <v>       0.00000000       0.00000000       0.00000000 </v>
   <v>       0.99693465       0.99847887       0.15840122 </v>
   <v>       0.99794054       0.00356768       0.33119919 </v>
   <v>       0.00000001       0.33333336       0.00000000 </v>
   <v>       0.99832380       0.33366384       0.15741446 </v>
   <v>       0.98697691       0.33167292       0.31129262 </v>
   <v>       0.00000002       0.66666672       0.00000000 </v>
   <v>       0.99676519       0.66579223       0.15797047 </v>
   <v>       0.99821338       0.67301081       0.31492761 </v>
   <v>       0.33333334       0.00000000       0.00000000 </v>
   <v>       0.33058778       0.99859322       0.15753391 </v>
   <v>       0.32464423       0.99753620       0.31043188 </v>
   <v>       0.33333335       0.33333336       0.00000000 </v>
   <v>       0.33060643       0.33137350       0.15690501 </v>
   <v>       0.31604887       0.32148905       0.31115536 </v>
   <v>       0.33333336       0.66666672       0.00000000 </v>
   <v>       0.33030313       0.66615547       0.15812306 </v>
   <v>       0.31356087       0.66764894       0.32994107 </v>
   <v>       0.66666668       0.00000000       0.00000000 </v>
   <v>       0.66456853       0.99768131       0.15779968 </v>
   <v>       0.66340840       0.00687347       0.31406820 </v>
   <v>       0.66666668       0.33333336       0.00000000 </v>
   <v>       0.66462588       0.33454177       0.15870709 </v>
   <v>       0.65757909       0.32213990       0.32671901 </v>
   <v>       0.66666670       0.66666672       0.00000000 </v>
   <v>       0.66662121       0.66645563       0.15894481 </v>
   <v>       0.66281747       0.67379193       0.32725367 </v>
   <v>       0.11111113       0.22222222       0.07982145 </v>
   <v>       0.10375180       0.21894099       0.23548994 </v>
   <v>       0.11111114       0.55555561       0.07982145 </v>
   <v>       0.11068414       0.55766656       0.23681435 </v>
   <v>       0.11111116       0.88888894       0.07982145 </v>
   <v>       0.10424758       0.88747158       0.23538937 </v>
   <v>       0.44444450       0.22222222       0.07982145 </v>
   <v>       0.44263202       0.22359951       0.23588465 </v>
   <v>       0.44444450       0.55555561       0.07982145 </v>
   <v>       0.44081606       0.55463101       0.23479980 </v>
   <v>       0.44444451       0.88888894       0.07982145 </v>
   <v>       0.44065093       0.88297739       0.23655460 </v>
   <v>       0.77777779       0.22222222       0.07982145 </v>
   <v>       0.77082148       0.22008206       0.23480151 </v>
   <v>       0.77777781       0.55555561       0.07982145 </v>
   <v>       0.76733451       0.54994421       0.24155497 </v>
   <v>       0.77777784       0.88888894       0.07982145 </v>
   <v>       0.77492696       0.88445031       0.24079821 </v>
   <v>       0.99539299       0.00482879       0.39593905 </v>
   <v>       0.26723437       0.97189907       0.41554480 </v>
   <v>       0.90951261       0.23846037       0.41532082 </v>
   <v>       0.62663325       0.35997777       0.38900865 </v>
   <v>       0.62560311       0.63201714       0.38797327 </v>
   <v>       0.36394281       0.66756506       0.39212692 </v>
   <v>       0.97532284       0.08784288       0.40862463 </v>
   <v>       0.08908999       0.00626146       0.40949018 </v>
   <v>       0.36736136       0.07513338       0.41151651 </v>
   <v>       0.24474148       0.92155124       0.38793614 </v>
   <v>       0.00646258       0.34507691       0.41263589 </v>
   <v>       0.86015069       0.21854237       0.38752717 </v>
   <v>       0.62599464       0.46809498       0.39272592 </v>
   <v>       0.70471823       0.35932960       0.40826925 </v>
   <v>       0.71746105       0.71137708       0.40401913 </v>
   <v>       0.42739146       0.54918500       0.32175810 </v>
   <v>       0.36891091       0.75289025       0.40963059 </v>
   <v>       0.46510821       0.65866868       0.39637768 </v>
  </varray>
  <varray name="selective"  type="logical" >
   <v type="logical" >  F  F  F </v>
   <v type="logical" >  T  T  T </v>
   <v type="logical" >  T  T  T </v>
   <v type="logical" >  F  F  F </v>
   <v type="logical" >  T  T  T </v>
   <v type="logical" >  T  T  T </v>
   <v type="logical" >  F  F  F </v>
   <v type="logical" >  T  T  T </v>
   <v type="logical" >  T  T  T </v>
   <v type="logical" >  F  F  F </v>
   <v type="logical" >  T  T  T </v>
   <v type="logical" >  T  T  T </v>
   <v type="logical" >  F  F  F </v>
   <v type="logical" >  T  T  T </v>
   <v type="logical" >  T  T  T </v>
   <v type="logical" >  F  F  F </v>
   <v type="logical" >  T  T  T </v>
   <v type="logical" >  T  T  T </v>
   <v type="logical" >  F  F  F </v>
   <v type="logical" >  T  T  T </v>
   <v type="logical" >  T  T  T </v>
   <v type="logical" >  F  F  F </v>
   <v type="logical" >  T  T  T </v>
   <v type="logical" >  T  T  T </v>
   <v type="logical" >  F  F  F </v>
   <v type="logical" >  T  T  T </v>
   <v type="logical" >  T  T  T </v>
   <v type="logical" >  F  F  F </v>
   <v type="logical" >  T  T  T </v>
   <v type="logical" >  F  F  F </v>
   <v type="logical" >  T  T  T </v>
   <v type="logical" >  F  F  F </v>
   <v type="logical" >  T  T  T </v>
   <v type="logical" >  F  F  F </v>
   <v type="logical" >  T  T  T </v>
   <v type="logical" >  F  F  F </v>
   <v type="logical" >  T  T  T </v>
   <v type="logical" >  F  F  F </v>
   <v type="logical" >  T  T  T </v>
   <v type="logical" >  F  F  F </v>
   <v type="logical" >  T  T  T </v>
   <v type="logical" >  F  F  F </v>
   <v type="logical" >  T  T  T </v>
   <v type="logical" >  F  F  F </v>
   <v type="logical" >  T  T  T </v>
   <v type="logical" >  T  T  T </v>
   <v type="logical" >  T  T  T </v>
   <v type="logical" >  T  T  T </v>
   <v type="logical" >  T  T  T </v>
   <v type="logical" >  T  T  T </v>
   <v type="logical" >  T  T  T </v>
   <v type="logical" >  T  T  T </v>
   <v type="logical" >  T  T  T </v>
   <v type="logical" >  T  T  T </v>
   <v type="logical" >  T  T  T </v>
   <v type="logical" >  T  T  T </v>
   <v type="logical" >  T  T  T </v>
   <v type="logical" >  T  T  T </v>
   <v type="logical" >  T  T  T </v>
   <v type="logical" >  T  T  T </v>
   <v type="logical" >  T  T  T </v>
   <v type="logical" >  T  T  T </v>
   <v type="logical" >  T  T  T </v>
  </varray>
  <nose>
   <v>      -3.00000000       0.00000000       0.00010000       0.00010000 </v>
  </nose>
 </structure>
</modeling>
