Mg_slab_in_a_box                        
           1
     9.555753    0.000000    0.000000
    -4.777876    8.275525    0.000000
     0.000000    0.000000   32.625095
   Mg   O    H 
  45   6  12
Direct configuration=     1
   0.00000000  0.00000000  0.00000000
   0.99693465  0.99847887  0.15840122
   0.99794054  0.00356768  0.33119919
   0.00000001  0.33333336  0.00000000
   0.99832380  0.33366384  0.15741446
   0.98697691  0.33167292  0.31129262
   0.00000002  0.66666672  0.00000000
   0.99676519  0.66579223  0.15797047
   0.99821338  0.67301081  0.31492761
   0.33333334  0.00000000  0.00000000
   0.33058778  0.99859322  0.15753391
   0.32464423  0.99753620  0.31043188
   0.33333335  0.33333336  0.00000000
   0.33060643  0.33137350  0.15690501
   0.31604887  0.32148905  0.31115536
   0.33333336  0.66666672  0.00000000
   0.33030313  0.66615547  0.15812306
   0.31356087  0.66764894  0.32994107
   0.66666668  0.00000000  0.00000000
   0.66456853  0.99768131  0.15779968
   0.66340840  0.00687347  0.31406820
   0.66666668  0.33333336  0.00000000
   0.66462588  0.33454177  0.15870709
   0.65757909  0.32213990  0.32671901
   0.66666670  0.66666672  0.00000000
   0.66662121  0.66645563  0.15894481
   0.66281747  0.67379193  0.32725367
   0.11111113  0.22222222  0.07982145
   0.10375180  0.21894099  0.23548994
   0.11111114  0.55555561  0.07982145
   0.11068414  0.55766656  0.23681435
   0.11111116  0.88888894  0.07982145
   0.10424758  0.88747158  0.23538937
   0.44444450  0.22222222  0.07982145
   0.44263202  0.22359951  0.23588465
   0.44444450  0.55555561  0.07982145
   0.44081606  0.55463101  0.23479980
   0.44444451  0.88888894  0.07982145
   0.44065093  0.88297739  0.23655460
   0.77777779  0.22222222  0.07982145
   0.77082148  0.22008206  0.23480151
   0.77777781  0.55555561  0.07982145
   0.76733451  0.54994421  0.24155497
   0.77777784  0.88888894  0.07982145
   0.77492696  0.88445031  0.24079821
   0.99539299  0.00482879  0.39593905
   0.26723437  0.97189907  0.41554480
   0.90951261  0.23846037  0.41532082
   0.62663325  0.35997777  0.38900865
   0.62560311  0.63201714  0.38797327
   0.36394281  0.66756506  0.39212692
   0.97532284  0.08784288  0.40862463
   0.08908999  0.00626146  0.40949018
   0.36736136  0.07513338  0.41151651
   0.24474148  0.92155124  0.38793614
   0.00646258  0.34507691  0.41263589
   0.86015069  0.21854237  0.38752717
   0.62599464  0.46809498  0.39272592
   0.70471823  0.35932960  0.40826925
   0.71746105  0.71137708  0.40401913
   0.42739146  0.54918500  0.32175810
   0.36891091  0.75289025  0.40963059
   0.46510821  0.65866868  0.39637768
