  63  63   0   0
  0.4095168E+02  0.9555753E-09  0.9555753E-09  0.3262510E-08  0.5000000E-15
  1.000000000000000E-004
  CAR 
 Mg_slab_in_a_box                        
      4.02178645    -25.74715628  301     -0.78755623      1.00000000
    -25.747  0.0000E+00  0.0000E+00
    -25.648  0.0000E+00  0.0000E+00
    -25.549  0.0000E+00  0.0000E+00
    -25.449  0.0000E+00  0.0000E+00
    -25.350  0.0000E+00  0.0000E+00
    -25.251  0.0000E+00  0.0000E+00
    -25.152  0.0000E+00  0.0000E+00
    -25.053  0.0000E+00  0.0000E+00
    -24.953  0.0000E+00  0.0000E+00
    -24.854  0.0000E+00  0.0000E+00
    -24.755  0.0000E+00  0.0000E+00
    -24.656  0.0000E+00  0.0000E+00
    -24.556  0.0000E+00  0.0000E+00
    -24.457  0.0000E+00  0.0000E+00
    -24.358  0.0000E+00  0.0000E+00
    -24.259  0.0000E+00  0.0000E+00
    -24.159  0.0000E+00  0.0000E+00
    -24.060  0.0000E+00  0.0000E+00
    -23.961  0.0000E+00  0.0000E+00
    -23.862  0.0000E+00  0.0000E+00
    -23.763  0.0000E+00  0.0000E+00
    -23.663  0.0000E+00  0.2000E+01
    -23.564  0.0000E+00  0.4000E+01
    -23.465  0.0000E+00  0.4000E+01
    -23.366  0.0000E+00  0.4000E+01
    -23.266  0.0000E+00  0.6000E+01
    -23.167  0.0000E+00  0.8000E+01
    -23.068  0.0000E+00  0.8000E+01
    -22.969  0.0000E+00  0.1000E+02
    -22.869  0.0000E+00  0.1000E+02
    -22.770  0.0000E+00  0.1000E+02
    -22.671  0.0000E+00  0.1000E+02
    -22.572  0.0000E+00  0.1000E+02
    -22.473  0.0000E+00  0.1000E+02
    -22.373  0.0000E+00  0.1000E+02
    -22.274  0.0000E+00  0.1000E+02
    -22.175  0.0000E+00  0.1000E+02
    -22.076  0.0000E+00  0.1000E+02
    -21.976  0.0000E+00  0.1000E+02
    -21.877  0.0000E+00  0.1000E+02
    -21.778  0.0000E+00  0.1000E+02
    -21.679  0.0000E+00  0.1000E+02
    -21.580  0.0000E+00  0.1000E+02
    -21.480  0.0000E+00  0.1000E+02
    -21.381  0.0000E+00  0.1000E+02
    -21.282  0.0000E+00  0.1000E+02
    -21.183  0.0000E+00  0.1000E+02
    -21.083  0.0000E+00  0.1000E+02
    -20.984  0.0000E+00  0.1000E+02
    -20.885  0.0000E+00  0.1000E+02
    -20.786  0.0000E+00  0.1200E+02
    -20.686  0.0000E+00  0.1200E+02
    -20.587  0.0000E+00  0.1200E+02
    -20.488  0.0000E+00  0.1200E+02
    -20.389  0.0000E+00  0.1200E+02
    -20.290  0.0000E+00  0.1200E+02
    -20.190  0.0000E+00  0.1200E+02
    -20.091  0.0000E+00  0.1200E+02
    -19.992  0.0000E+00  0.1200E+02
    -19.893  0.0000E+00  0.1200E+02
    -19.793  0.0000E+00  0.1200E+02
    -19.694  0.0000E+00  0.1200E+02
    -19.595  0.0000E+00  0.1200E+02
    -19.496  0.0000E+00  0.1200E+02
    -19.396  0.0000E+00  0.1200E+02
    -19.297  0.0000E+00  0.1200E+02
    -19.198  0.0000E+00  0.1200E+02
    -19.099  0.0000E+00  0.1200E+02
    -19.000  0.0000E+00  0.1200E+02
    -18.900  0.0000E+00  0.1200E+02
    -18.801  0.0000E+00  0.1200E+02
    -18.702  0.0000E+00  0.1200E+02
    -18.603  0.0000E+00  0.1200E+02
    -18.503  0.0000E+00  0.1200E+02
    -18.404  0.0000E+00  0.1200E+02
    -18.305  0.0000E+00  0.1200E+02
    -18.206  0.0000E+00  0.1200E+02
    -18.106  0.0000E+00  0.1200E+02
    -18.007  0.0000E+00  0.1200E+02
    -17.908  0.0000E+00  0.1200E+02
    -17.809  0.0000E+00  0.1200E+02
    -17.710  0.0000E+00  0.1200E+02
    -17.610  0.0000E+00  0.1200E+02
    -17.511  0.0000E+00  0.1200E+02
    -17.412  0.0000E+00  0.1200E+02
    -17.313  0.0000E+00  0.1200E+02
    -17.213  0.0000E+00  0.1200E+02
    -17.114  0.0000E+00  0.1200E+02
    -17.015  0.0000E+00  0.1200E+02
    -16.916  0.0000E+00  0.1200E+02
    -16.816  0.0000E+00  0.1200E+02
    -16.717  0.0000E+00  0.1200E+02
    -16.618  0.0000E+00  0.1200E+02
    -16.519  0.0000E+00  0.1200E+02
    -16.420  0.0000E+00  0.1200E+02
    -16.320  0.0000E+00  0.1200E+02
    -16.221  0.0000E+00  0.1200E+02
    -16.122  0.0000E+00  0.1200E+02
    -16.023  0.0000E+00  0.1200E+02
    -15.923  0.0000E+00  0.1200E+02
    -15.824  0.0000E+00  0.1200E+02
    -15.725  0.0000E+00  0.1200E+02
    -15.626  0.0000E+00  0.1200E+02
    -15.526  0.0000E+00  0.1200E+02
    -15.427  0.0000E+00  0.1200E+02
    -15.328  0.0000E+00  0.1200E+02
    -15.229  0.0000E+00  0.1200E+02
    -15.130  0.0000E+00  0.1200E+02
    -15.030  0.0000E+00  0.1200E+02
    -14.931  0.0000E+00  0.1200E+02
    -14.832  0.0000E+00  0.1200E+02
    -14.733  0.0000E+00  0.1200E+02
    -14.633  0.0000E+00  0.1200E+02
    -14.534  0.0000E+00  0.1200E+02
    -14.435  0.0000E+00  0.1200E+02
    -14.336  0.0000E+00  0.1200E+02
    -14.236  0.0000E+00  0.1200E+02
    -14.137  0.0000E+00  0.1200E+02
    -14.038  0.0000E+00  0.1200E+02
    -13.939  0.0000E+00  0.1200E+02
    -13.840  0.0000E+00  0.1200E+02
    -13.740  0.0000E+00  0.1200E+02
    -13.641  0.0000E+00  0.1200E+02
    -13.542  0.0000E+00  0.1200E+02
    -13.443  0.0000E+00  0.1200E+02
    -13.343  0.0000E+00  0.1200E+02
    -13.244  0.0000E+00  0.1200E+02
    -13.145  0.0000E+00  0.1200E+02
    -13.046  0.0000E+00  0.1200E+02
    -12.947  0.0000E+00  0.1200E+02
    -12.847  0.0000E+00  0.1200E+02
    -12.748  0.0000E+00  0.1200E+02
    -12.649  0.0000E+00  0.1200E+02
    -12.550  0.0000E+00  0.1200E+02
    -12.450  0.0000E+00  0.1200E+02
    -12.351  0.0000E+00  0.1200E+02
    -12.252  0.0000E+00  0.1200E+02
    -12.153  0.0000E+00  0.1200E+02
    -12.053  0.0000E+00  0.1200E+02
    -11.954  0.0000E+00  0.1200E+02
    -11.855  0.0000E+00  0.1200E+02
    -11.756  0.0000E+00  0.1400E+02
    -11.657  0.0000E+00  0.1600E+02
    -11.557  0.0000E+00  0.1600E+02
    -11.458  0.0000E+00  0.1600E+02
    -11.359  0.0000E+00  0.1600E+02
    -11.260  0.0000E+00  0.1600E+02
    -11.160  0.0000E+00  0.1800E+02
    -11.061  0.7364E+02  0.1866E+02
    -10.962  0.0000E+00  0.2200E+02
    -10.863  0.0000E+00  0.2200E+02
    -10.763  0.0000E+00  0.2200E+02
    -10.664  0.0000E+00  0.2200E+02
    -10.565  0.0000E+00  0.2200E+02
    -10.466  0.0000E+00  0.2200E+02
    -10.367  0.0000E+00  0.2200E+02
    -10.267  0.0000E+00  0.2200E+02
    -10.168  0.0000E+00  0.2200E+02
    -10.069  0.0000E+00  0.2200E+02
     -9.970  0.0000E+00  0.2200E+02
     -9.870  0.0000E+00  0.2200E+02
     -9.771  0.0000E+00  0.2200E+02
     -9.672  0.0000E+00  0.2200E+02
     -9.573  0.0000E+00  0.2200E+02
     -9.473  0.0000E+00  0.2200E+02
     -9.374  0.0000E+00  0.2200E+02
     -9.275  0.0000E+00  0.2200E+02
     -9.176  0.0000E+00  0.2200E+02
     -9.077  0.0000E+00  0.2200E+02
     -8.977  0.0000E+00  0.2200E+02
     -8.878  0.0000E+00  0.2200E+02
     -8.779  0.0000E+00  0.2200E+02
     -8.680  0.5709E+02  0.2201E+02
     -8.580  0.0000E+00  0.2600E+02
     -8.481  0.0000E+00  0.2600E+02
     -8.382  0.0000E+00  0.2800E+02
     -8.283  0.0000E+00  0.2800E+02
     -8.183  0.0000E+00  0.2800E+02
     -8.084  0.0000E+00  0.3000E+02
     -7.985  0.0000E+00  0.3000E+02
     -7.886  0.0000E+00  0.3000E+02
     -7.787  0.0000E+00  0.3000E+02
     -7.687  0.4244E+03  0.3247E+02
     -7.588  0.0000E+00  0.3400E+02
     -7.489  0.1718E+01  0.3406E+02
     -7.390  0.4215E+01  0.3435E+02
     -7.290  0.7090E+01  0.3494E+02
     -7.191  0.4734E+01  0.3553E+02
     -7.092  0.2377E+01  0.3588E+02
     -6.993  0.4712E+01  0.3617E+02
     -6.893  0.2121E+02  0.3742E+02
     -6.794  0.1680E+01  0.3802E+02
     -6.695  0.9569E+01  0.3858E+02
     -6.596  0.1121E+02  0.4027E+02
     -6.497  0.8739E+01  0.4140E+02
     -6.397  0.1637E+02  0.4213E+02
     -6.298  0.2809E+02  0.4435E+02
     -6.199  0.1522E+02  0.4616E+02
     -6.100  0.7603E+01  0.4766E+02
     -6.000  0.1410E+02  0.4864E+02
     -5.901  0.1838E+02  0.5037E+02
     -5.802  0.9613E+01  0.5313E+02
     -5.703  0.6023E+01  0.5517E+02
     -5.604  0.1028E+02  0.5732E+02
     -5.504  0.1466E+02  0.5911E+02
     -5.405  0.2608E+01  0.5996E+02
     -5.306  0.3029E+02  0.6123E+02
     -5.207  0.1065E+02  0.6285E+02
     -5.107  0.5748E+01  0.6367E+02
     -5.008  0.1502E+02  0.6518E+02
     -4.909  0.9043E+01  0.6610E+02
     -4.810  0.9858E+01  0.6755E+02
     -4.710  0.9364E+01  0.6849E+02
     -4.611  0.1416E+02  0.7079E+02
     -4.512  0.1799E+02  0.7336E+02
     -4.413  0.1517E+02  0.7527E+02
     -4.314  0.1811E+02  0.7687E+02
     -4.214  0.1042E+02  0.7844E+02
     -4.115  0.7434E+01  0.8022E+02
     -4.016  0.8339E+01  0.8057E+02
     -3.917  0.2767E+02  0.8229E+02
     -3.817  0.5275E+01  0.8437E+02
     -3.718  0.2382E+02  0.8539E+02
     -3.619  0.5610E+01  0.8679E+02
     -3.520  0.7315E+01  0.8756E+02
     -3.420  0.6552E+01  0.8824E+02
     -3.321  0.6825E+01  0.8890E+02
     -3.222  0.1035E+03  0.8992E+02
     -3.123  0.2002E+02  0.9229E+02
     -3.024  0.2537E+02  0.9422E+02
     -2.924  0.3551E+02  0.9750E+02
     -2.825  0.1897E+02  0.1002E+03
     -2.726  0.8628E+01  0.1015E+03
     -2.627  0.2402E+02  0.1032E+03
     -2.527  0.2730E+02  0.1046E+03
     -2.428  0.1795E+02  0.1072E+03
     -2.329  0.4768E+01  0.1090E+03
     -2.230  0.3618E+01  0.1094E+03
     -2.130  0.4335E+01  0.1110E+03
     -2.031  0.1021E+02  0.1116E+03
     -1.932  0.2481E+02  0.1133E+03
     -1.833  0.3327E+02  0.1164E+03
     -1.734  0.3107E+02  0.1194E+03
     -1.634  0.2422E+02  0.1222E+03
     -1.535  0.2159E+02  0.1244E+03
     -1.436  0.1595E+02  0.1265E+03
     -1.337  0.1118E+02  0.1277E+03
     -1.237  0.9237E+01  0.1287E+03
     -1.138  0.2551E+02  0.1301E+03
     -1.039  0.2814E+02  0.1326E+03
     -0.940  0.2045E+02  0.1352E+03
     -0.840  0.1062E+02  0.1369E+03
     -0.741  0.3570E+02  0.1401E+03
     -0.642  0.1666E+02  0.1430E+03
     -0.543  0.6232E+01  0.1445E+03
     -0.444  0.1196E+02  0.1454E+03
     -0.344  0.8817E+01  0.1471E+03
     -0.245  0.2046E+02  0.1483E+03
     -0.146  0.2289E+02  0.1504E+03
     -0.047  0.3520E+02  0.1533E+03
      0.053  0.3809E+02  0.1549E+03
      0.152  0.2833E+02  0.1587E+03
      0.251  0.1769E+02  0.1606E+03
      0.350  0.7277E+02  0.1623E+03
      0.450  0.1608E+02  0.1650E+03
      0.549  0.2301E+02  0.1676E+03
      0.648  0.2813E+02  0.1694E+03
      0.747  0.1187E+02  0.1714E+03
      0.846  0.2892E+02  0.1741E+03
      0.946  0.9404E+01  0.1763E+03
      1.045  0.2630E+02  0.1786E+03
      1.144  0.2030E+02  0.1811E+03
      1.243  0.8545E+02  0.1851E+03
      1.343  0.3691E+02  0.1891E+03
      1.442  0.2521E+02  0.1926E+03
      1.541  0.4375E+02  0.1969E+03
      1.640  0.1391E+02  0.1999E+03
      1.740  0.7822E+01  0.2005E+03
      1.839  0.1983E+01  0.2022E+03
      1.938  0.3014E+01  0.2024E+03
      2.037  0.0000E+00  0.2040E+03
      2.136  0.0000E+00  0.2040E+03
      2.236  0.0000E+00  0.2040E+03
      2.335  0.0000E+00  0.2040E+03
      2.434  0.0000E+00  0.2040E+03
      2.533  0.0000E+00  0.2040E+03
      2.633  0.0000E+00  0.2040E+03
      2.732  0.0000E+00  0.2040E+03
      2.831  0.0000E+00  0.2040E+03
      2.930  0.0000E+00  0.2040E+03
      3.029  0.0000E+00  0.2040E+03
      3.129  0.0000E+00  0.2040E+03
      3.228  0.0000E+00  0.2040E+03
      3.327  0.0000E+00  0.2040E+03
      3.426  0.0000E+00  0.2040E+03
      3.526  0.0000E+00  0.2040E+03
      3.625  0.0000E+00  0.2040E+03
      3.724  0.0000E+00  0.2040E+03
      3.823  0.0000E+00  0.2040E+03
      3.923  0.0000E+00  0.2040E+03
      4.022  0.0000E+00  0.2040E+03
