       N       E                     dE             d eps       ncg     rms          rms(c)
RMM:   1     0.124247676891E+04    0.12425E+04   -0.27935E+04   510   0.785E+02
RMM:   2     0.545067538787E+03   -0.69741E+03   -0.75620E+03   510   0.166E+02
RMM:   3     0.310121873765E+03   -0.23495E+03   -0.29882E+03   510   0.832E+01
RMM:   4     0.138669319741E+03   -0.17145E+03   -0.14762E+03   510   0.791E+01
RMM:   5     0.217819706027E+02   -0.11689E+03   -0.93090E+02   510   0.641E+01
RMM:   6    -0.429298904447E+02   -0.64712E+02   -0.49095E+02   510   0.462E+01
RMM:   7    -0.706898681327E+02   -0.27760E+02   -0.20793E+02   510   0.269E+01
RMM:   8    -0.782722832922E+02   -0.75824E+01   -0.61644E+01   510   0.141E+01
RMM:   9    -0.805672993254E+02   -0.22950E+01   -0.21997E+01  1476   0.771E+00
RMM:  10    -0.808507375982E+02   -0.28344E+00   -0.30102E+00  1750   0.282E+00
RMM:  11    -0.808505010692E+02    0.23653E-03   -0.16221E-01  1705   0.700E-01
RMM:  12    -0.808531717920E+02   -0.26707E-02   -0.35170E-02  1811   0.294E-01    0.202E+01
RMM:  13    -0.709250235293E+02    0.99281E+01   -0.62573E+01  1411   0.144E+01    0.795E+00
RMM:  14    -0.968270412294E+02   -0.25902E+02   -0.13673E+01  1613   0.365E+00    0.108E+01
RMM:  15    -0.694936215250E+02    0.27333E+02   -0.32236E+00  1460   0.157E+00    0.498E+00
RMM:  16    -0.695079318889E+02   -0.14310E-01   -0.14328E+00  1588   0.200E+00    0.254E+00
RMM:  17    -0.691622661137E+02    0.34567E+00   -0.42086E-01  1360   0.133E+00    0.832E-01
RMM:  18    -0.691630609177E+02   -0.79480E-03   -0.13331E-01  1585   0.680E-01    0.474E-01
RMM:  19    -0.691392815928E+02    0.23779E-01   -0.27992E-02  1347   0.292E-01    0.243E-01
RMM:  20    -0.691368096078E+02    0.24720E-02   -0.70035E-03  1460   0.135E-01    0.130E-01
RMM:  21    -0.691339955991E+02    0.28140E-02   -0.38834E-03  1550   0.117E-01    0.598E-02
RMM:  22    -0.691285910717E+02    0.54045E-02   -0.10712E-03  1415   0.592E-02    0.403E-02
RMM:  23    -0.691239482824E+02    0.46428E-02   -0.46921E-04  1223   0.355E-02    0.205E-02
RMM:  24    -0.691250700408E+02   -0.11218E-02   -0.47749E-04  1140   0.448E-02    0.233E-02
RMM:  25    -0.691256274502E+02   -0.55741E-03   -0.17937E-04  1092   0.317E-02    0.801E-03
RMM:  26    -0.691255127357E+02    0.11471E-03   -0.33594E-04  1055   0.323E-02    0.796E-03
RMM:  27    -0.691254725463E+02    0.40189E-04   -0.11563E-04  1034   0.169E-02    0.339E-03
RMM:  28    -0.691255010154E+02   -0.28469E-04   -0.55555E-05   915   0.111E-02    0.154E-03
RMM:  29    -0.691255433468E+02   -0.42331E-04   -0.35538E-05   835   0.958E-03    0.109E-03
RMM:  30    -0.691255490650E+02   -0.57182E-05   -0.44090E-05   814   0.893E-03    0.695E-04
RMM:  31    -0.691255724961E+02   -0.23431E-04   -0.11099E-05   756   0.591E-03    0.371E-04
RMM:  32    -0.691256029309E+02   -0.30435E-04   -0.10205E-05   742   0.505E-03    0.698E-04
RMM:  33    -0.691255883031E+02    0.14628E-04   -0.80211E-06   826   0.409E-03    0.651E-04
RMM:  34    -0.691255513022E+02    0.37001E-04   -0.50709E-05  1064   0.655E-03    0.236E-04
RMM:  35    -0.691255471841E+02    0.41181E-05   -0.53801E-05  1009   0.850E-03    0.101E-04
RMM:  36    -0.691255326738E+02    0.14510E-04   -0.53173E-05  1185   0.116E-02    0.165E-04
RMM:  37    -0.691255404049E+02   -0.77311E-05   -0.38063E-05  1237   0.127E-02    0.961E-05
RMM:  38    -0.691255355290E+02    0.48759E-05    0.51840E-05  1205   0.986E-03    0.508E-05
RMM:  39    -0.691255665319E+02   -0.31003E-04   -0.84981E-05  1209   0.101E-02    0.946E-05
RMM:  40    -0.691255564387E+02    0.10093E-04   -0.26282E-05  1177   0.926E-03    0.651E-05
RMM:  41    -0.691255581552E+02   -0.17165E-05   -0.62660E-06  1082   0.593E-03
   1 F= -.69125558E+02 E0= -.69125558E+02  d E =0.000000E+00
