 vasp.5.4.4.18Apr17-6-g9f103f2a35 (build Jun 08 2018 12:06:12) complex          
  
 executed on             LinuxIFC date 2019.06.06  07:09:46
 running on   72 total cores
 distrk:  each k-point on   72 cores,    1 groups
 distr:  one band on NCORES_PER_BAND=  24 cores,    3 groups


--------------------------------------------------------------------------------------------------------


 INCAR:
 POTCAR:    PAW_PBE Mg 13Apr2007                  
 POTCAR:    PAW_PBE O 08Apr2002                   
 POTCAR:    PAW_PBE H 15Jun2001                   

 ----------------------------------------------------------------------------- 
|                                                                             |
|           W    W    AA    RRRRR   N    N  II  N    N   GGGG   !!!           |
|           W    W   A  A   R    R  NN   N  II  NN   N  G    G  !!!           |
|           W    W  A    A  R    R  N N  N  II  N N  N  G       !!!           |
|           W WW W  AAAAAA  RRRRR   N  N N  II  N  N N  G  GGG   !            |
|           WW  WW  A    A  R   R   N   NN  II  N   NN  G    G                |
|           W    W  A    A  R    R  N    N  II  N    N   GGGG   !!!           |
|                                                                             |
|      For optimal performance we recommend to set                            |
|        NCORE= 4 - approx SQRT( number of cores)                             |
|      NCORE specifies how many cores store one orbital (NPAR=cpu/NCORE).     |
|      This setting can  greatly improve the performance of VASP for DFT.     |
|      The default,   NCORE=1            might be grossly inefficient         |
|      on modern multi-core architectures or massively parallel machines.     |
|      Do your own testing !!!!                                               |
|      Unfortunately you need to use the default for GW and RPA calculations. |
|      (for HF NCORE is supported but not extensively tested yet)             |
|                                                                             |
 ----------------------------------------------------------------------------- 


 ----------------------------------------------------------------------------- 
|                                                                             |
|  ADVICE TO THIS USER RUNNING 'VASP/VAMP'   (HEAR YOUR MASTER'S VOICE ...):  |
|                                                                             |
|      You have switched on vdW-DFT.                                          |
|      This routine was written and supplied by Jiri Klimes.                  |
|      We recommed that you carefully read and cite the following             |
|      publication                                                            |
|      J. Klimes, D.R. Bowler, A. Michelides                                  |
|        J. Phys.: Cond Matt. 22 022201 (2010)                                |
|      J. Klimes, D.R. Bowler, A. Michelides                                  |
|        Phys. Rev. B. 83, 195131 (2011)                                      |
|      and references therein.                                                |
|                                                                             |
 ----------------------------------------------------------------------------- 

 POTCAR:    PAW_PBE Mg 13Apr2007                  
   VRHFIN =Mg: s2p0                                                             
   LEXCH  = PE                                                                  
   EATOM  =    23.0369 eV,    1.6932 Ry                                         
                                                                                
   TITEL  = PAW_PBE Mg 13Apr2007                                                
   LULTRA =        F    use ultrasoft PP ?                                      
   IUNSCR =        1    unscreen: 0-lin 1-nonlin 2-no                           
   RPACOR =    1.500    partial core radius                                     
   POMASS =   24.305; ZVAL   =    2.000    mass and valenz                      
   RCORE  =    2.000    outmost cutoff radius                                   
   RWIGS  =    2.880; RWIGS  =    1.524    wigner-seitz radius (au A)           
   ENMAX  =  200.000; ENMIN  =  100.000 eV                                      
   RCLOC  =    1.506    cutoff for local pot                                    
   LCOR   =        T    correct aug charges                                     
   LPAW   =        T    paw PP                                                  
   EAUG   =  454.734                                                            
   DEXC   =    0.000                                                            
   RMAX   =    2.045    core radius for proj-oper                               
   RAUG   =    1.300    factor for augmentation sphere                          
   RDEP   =    2.025    radius for radial grids                                 
   RDEPT  =    1.942    core radius for aug-charge                              
                                                                                
   Atomic configuration                                                         
    6 entries                                                                   
     n  l   j            E        occ.                                          
     1  0  0.50     -1259.6230   2.0000                                         
     2  0  0.50       -79.8442   2.0000                                         
     2  1  1.50       -46.6121   6.0000                                         
     3  0  0.50        -4.7055   2.0000                                         
     3  1  0.50        -1.3660   0.0000                                         
     3  2  1.50        -1.3606   0.0000                                         
   Description                                                                  
     l       E           TYP  RCUT    TYP  RCUT                                 
     0     -4.7054661     23  2.000                                             
     0     27.2116520     23  2.000                                             
     1      1.3605826     23  2.000                                             
     1     27.2116520     23  2.000                                             
     2     -1.3605826     23  2.000                                             
  local pseudopotential read in
  partial core-charges read in
  partial kinetic energy density read in
  atomic valenz-charges read in
  non local Contribution for L=           0  read in
    real space projection operators read in
  non local Contribution for L=           0  read in
    real space projection operators read in
  non local Contribution for L=           1  read in
    real space projection operators read in
  non local Contribution for L=           1  read in
    real space projection operators read in
  non local Contribution for L=           2  read in
    real space projection operators read in
    PAW grid and wavefunctions read in
 
   number of l-projection  operators is LMAX  =           5
   number of lm-projection operators is LMMAX =          13
 
 POTCAR:    PAW_PBE O 08Apr2002                   
   VRHFIN =O: s2p4                                                              
   LEXCH  = PE                                                                  
   EATOM  =   432.3788 eV,   31.7789 Ry                                         
                                                                                
   TITEL  = PAW_PBE O 08Apr2002                                                 
   LULTRA =        F    use ultrasoft PP ?                                      
   IUNSCR =        1    unscreen: 0-lin 1-nonlin 2-no                           
   RPACOR =    1.200    partial core radius                                     
   POMASS =   16.000; ZVAL   =    6.000    mass and valenz                      
   RCORE  =    1.520    outmost cutoff radius                                   
   RWIGS  =    1.550; RWIGS  =    0.820    wigner-seitz radius (au A)           
   ENMAX  =  400.000; ENMIN  =  300.000 eV                                      
   ICORE  =        2    local potential                                         
   LCOR   =        T    correct aug charges                                     
   LPAW   =        T    paw PP                                                  
   EAUG   =  605.392                                                            
   DEXC   =    0.000                                                            
   RMAX   =    1.553    core radius for proj-oper                               
   RAUG   =    1.300    factor for augmentation sphere                          
   RDEP   =    1.550    radius for radial grids                                 
   RDEPT  =    1.329    core radius for aug-charge                              
                                                                                
   Atomic configuration                                                         
    4 entries                                                                   
     n  l   j            E        occ.                                          
     1  0  0.50      -514.6923   2.0000                                         
     2  0  0.50       -23.9615   2.0000                                         
     2  1  0.50        -9.0305   4.0000                                         
     3  2  1.50        -9.5241   0.0000                                         
   Description                                                                  
     l       E           TYP  RCUT    TYP  RCUT                                 
     0    -23.9615318     23  1.200                                             
     0     -9.5240782     23  1.200                                             
     1     -9.0304911     23  1.520                                             
     1      8.1634956     23  1.520                                             
     2     -9.5240782      7  1.500                                             
  local pseudopotential read in
  partial core-charges read in
  partial kinetic energy density read in
  kinetic energy density of atom read in
  atomic valenz-charges read in
  non local Contribution for L=           0  read in
    real space projection operators read in
  non local Contribution for L=           0  read in
    real space projection operators read in
  non local Contribution for L=           1  read in
    real space projection operators read in
  non local Contribution for L=           1  read in
    real space projection operators read in
    PAW grid and wavefunctions read in
 
   number of l-projection  operators is LMAX  =           4
   number of lm-projection operators is LMMAX =           8
 
 POTCAR:    PAW_PBE H 15Jun2001                   
   VRHFIN =H: ultrasoft test                                                    
   LEXCH  = PE                                                                  
   EATOM  =    12.4884 eV,    0.9179 Ry                                         
                                                                                
   TITEL  = PAW_PBE H 15Jun2001                                                 
   LULTRA =        F    use ultrasoft PP ?                                      
   IUNSCR =        0    unscreen: 0-lin 1-nonlin 2-no                           
   RPACOR =    0.000    partial core radius                                     
   POMASS =    1.000; ZVAL   =    1.000    mass and valenz                      
   RCORE  =    1.100    outmost cutoff radius                                   
   RWIGS  =    0.700; RWIGS  =    0.370    wigner-seitz radius (au A)           
   ENMAX  =  250.000; ENMIN  =  200.000 eV                                      
   RCLOC  =    0.701    cutoff for local pot                                    
   LCOR   =        T    correct aug charges                                     
   LPAW   =        T    paw PP                                                  
   EAUG   =  400.000                                                            
   RMAX   =    1.123    core radius for proj-oper                               
   RAUG   =    1.200    factor for augmentation sphere                          
   RDEP   =    1.112    radius for radial grids                                 
   RDEPT  =    0.926    core radius for aug-charge                              
                                                                                
   Atomic configuration                                                         
    2 entries                                                                   
     n  l   j            E        occ.                                          
     1  0  0.50        -6.4927   1.0000                                         
     2  1  0.50        -3.4015   0.0000                                         
   Description                                                                  
     l       E           TYP  RCUT    TYP  RCUT                                 
     0     -6.4927494     23  1.100                                             
     0      6.8029130     23  1.100                                             
     1     -4.0817478     23  1.100                                             
  local pseudopotential read in
  atomic valenz-charges read in
  non local Contribution for L=           0  read in
    real space projection operators read in
  non local Contribution for L=           0  read in
    real space projection operators read in
  non local Contribution for L=           1  read in
    real space projection operators read in
    PAW grid and wavefunctions read in
 
   number of l-projection  operators is LMAX  =           3
   number of lm-projection operators is LMMAX =           5
 
 Optimization of the real space projectors (new method)

 maximal supplied QI-value         = 18.90
 optimisation between [QCUT,QGAM] = [ 11.53, 23.24] = [ 37.21,151.29] Ry 
 Optimized for a Real-space Cutoff    1.28 Angstroem

   l    n(q)    QCUT    max X(q) W(low)/X(q) W(high)/X(q)  e(spline) 
   0      9    11.527    28.265    0.62E-04    0.53E-04    0.73E-07
   0      9    11.527    10.429    0.52E-04    0.40E-04    0.58E-07
   1      8    11.527    13.073    0.98E-04    0.18E-03    0.86E-07
   1      8    11.527     9.625    0.79E-04    0.15E-03    0.74E-07
   2      8    11.527     4.652    0.22E-03    0.72E-04    0.47E-07
 Optimization of the real space projectors (new method)

 maximal supplied QI-value         = 24.76
 optimisation between [QCUT,QGAM] = [ 11.64, 23.27] = [ 37.91,151.63] Ry 
 Optimized for a Real-space Cutoff    1.14 Angstroem

   l    n(q)    QCUT    max X(q) W(low)/X(q) W(high)/X(q)  e(spline) 
   0      8    11.635    20.381    0.10E-03    0.33E-03    0.24E-06
   0      8    11.635    15.268    0.11E-03    0.35E-03    0.26E-06
   1      7    11.635     5.964    0.24E-03    0.31E-03    0.30E-06
   1      7    11.635     5.382    0.22E-03    0.25E-03    0.26E-06
 Optimization of the real space projectors (new method)

 maximal supplied QI-value         = 34.20
 optimisation between [QCUT,QGAM] = [ 11.63, 23.26] = [ 37.87,151.49] Ry 
 Optimized for a Real-space Cutoff    1.21 Angstroem

   l    n(q)    QCUT    max X(q) W(low)/X(q) W(high)/X(q)  e(spline) 
   0      8    11.629    19.460    0.17E-03    0.34E-03    0.21E-06
   0      8    11.629    12.209    0.16E-03    0.33E-03    0.21E-06
   1      8    11.629     4.655    0.18E-03    0.16E-03    0.26E-06

 ----------------------------------------------------------------------------- 
|                                                                             |
|  ADVICE TO THIS USER RUNNING 'VASP/VAMP'   (HEAR YOUR MASTER'S VOICE ...):  |
|                                                                             |
|      You enforced a specific xc-type in the INCAR file,                     |
|      a different type was found on the POTCAR file                          |
|          I HOPE YOU KNOW, WHAT YOU ARE  DOING                               |
|                                                                             |
 ----------------------------------------------------------------------------- 

  PAW_PBE Mg 13Apr2007                  :
 energy of atom  1       EATOM=  -23.0369
 kinetic energy error for atom=    0.0000 (will be added to EATOM!!)
  PAW_PBE O 08Apr2002                   :
 energy of atom  2       EATOM= -432.3788
 kinetic energy error for atom=    0.0208 (will be added to EATOM!!)
  PAW_PBE H 15Jun2001                   :
 energy of atom  3       EATOM=  -12.4884
 kinetic energy error for atom=    0.0014 (will be added to EATOM!!)
 
 
 POSCAR: Mg   O    H                             
  positions in direct lattice
  velocities in cartesian coordinates
 exchange correlation table for  LEXCH =       42
   RHO(1)=    0.500       N(1)  =     2000
   RHO(2)=  100.500       N(2)  =     4000

 VTST: version 3.2, (02/03/18)

 CHAIN: initializing optimizer
 
 OPT: Using VASP Dynamics algorithm
 CHAIN: Read ICHAIN            0
 
 POSCAR: Mg   O    H                             
  positions in direct lattice
  velocities in cartesian coordinates
 


--------------------------------------------------------------------------------------------------------


 ion  position               nearest neighbor table
   1  0.000  0.000  0.000-   7 3.19  25 3.19  19 3.19  10 3.19   4 3.19  13 3.19  44 3.19  32 3.19
                            28 3.19
   2  0.997  0.998  0.158-  33 3.09  29 3.11  44 3.14  32 3.16  28 3.16  26 3.16  20 3.17   8 3.18
                            14 3.18  11 3.19   5 3.19  45 3.26
   3  0.999  0.003  0.331-  46 2.13  15 3.12   9 3.20  27 3.20  12 3.21   6 3.26  21 3.26  45 3.48
                            29 3.59  33 3.64
   4  0.000  0.333  0.000-  22 3.19  13 3.19  19 3.19  16 3.19   1 3.19   7 3.19  40 3.19  30 3.19
                            28 3.19
   5  0.998  0.333  0.157-  40 3.12  30 3.13  28 3.14  29 3.14  41 3.15  17 3.18   8 3.18  31 3.18
                            14 3.18  23 3.19   2 3.19  20 3.20
   6  0.987  0.331  0.311-  31 3.06  41 3.06  29 3.11  21 3.11  24 3.14  15 3.19   9 3.22  18 3.23
                             3 3.26
   7  0.000  0.667  0.000-   1 3.19  10 3.19  25 3.19  16 3.19  22 3.19   4 3.19  42 3.19  32 3.19
                            30 3.19
   8  0.997  0.665  0.158-  33 3.11  42 3.13  32 3.15  30 3.15  26 3.16  31 3.16  23 3.17   5 3.18
                            17 3.18   2 3.18  11 3.19  43 3.33
   9  0.998  0.673  0.314-  43 3.05  18 3.08  12 3.12  33 3.14  31 3.17   3 3.20   6 3.22  27 3.26
                            24 3.34
  10  0.333  0.000  0.000-  16 3.19   7 3.19  19 3.19   1 3.19  22 3.19  13 3.19  32 3.19  34 3.19
                            38 3.19
  11  0.331  0.998  0.157-  32 3.12  38 3.13  34 3.14  33 3.15  35 3.16  17 3.17  14 3.18  39 3.19
                             8 3.19   2 3.19  20 3.19  23 3.20
  12  0.324  0.998  0.309-  33 3.04  35 3.04  39 3.06   9 3.12  15 3.14  18 3.17  24 3.18   3 3.21
                            21 3.22
  13  0.333  0.333  0.000-  22 3.19   4 3.19  10 3.19   1 3.19  25 3.19  16 3.19  28 3.19  36 3.19
                            34 3.19
  14  0.331  0.331  0.157-  28 3.10  34 3.12  36 3.13  37 3.13  35 3.15  29 3.18  23 3.18  11 3.18
                             2 3.18   5 3.18  17 3.20  26 3.21
  15  0.317  0.323  0.311-  61 1.91  29 3.03  35 3.09   3 3.12  12 3.14  37 3.16   6 3.19  24 3.30
                            27 3.36  18 3.38
  16  0.333  0.667  0.000-  10 3.19  19 3.19   7 3.19  25 3.19   4 3.19  13 3.19  38 3.19  30 3.19
                            36 3.19
  17  0.330  0.666  0.158-  37 3.10  39 3.12  30 3.13  31 3.14  38 3.15  36 3.15  11 3.17   5 3.18
                            20 3.18   8 3.18  14 3.20  26 3.22
  18  0.313  0.668  0.330-  61 1.93  51 2.11   9 3.08  12 3.17   6 3.23  27 3.29  21 3.32  15 3.38
                            31 3.46  39 3.53
  19  0.667  0.000  0.000-  25 3.19  16 3.19   1 3.19  10 3.19   4 3.19  22 3.19  38 3.19  44 3.19
                            40 3.19
  20  0.665  0.997  0.158-  41 3.11  38 3.13  44 3.13  40 3.15  39 3.16   2 3.17  26 3.18  17 3.18
                            11 3.19   5 3.20  23 3.22  45 3.29
  21  0.663  0.004  0.314-  45 3.07  24 3.07   6 3.11  39 3.13  41 3.14  27 3.19  12 3.22   3 3.26
                            18 3.32
  22  0.667  0.333  0.000-  13 3.19   4 3.19  10 3.19  25 3.19   7 3.19  19 3.19  34 3.19  42 3.19
                            40 3.19
  23  0.665  0.334  0.159-  41 3.08  35 3.11  34 3.16  42 3.16  26 3.16   8 3.17  40 3.18  14 3.18
                             5 3.19  11 3.20  20 3.22  43 3.24
  24  0.658  0.320  0.326-  49 2.09  21 3.07   6 3.14  12 3.18  15 3.30   9 3.34  43 3.35  27 3.36
                            35 3.45  41 3.47
  25  0.667  0.667  0.000-   1 3.19  19 3.19   7 3.19  16 3.19  22 3.19  13 3.19  36 3.19  42 3.19
                            44 3.19
  26  0.667  0.666  0.159-  37 3.09   8 3.16   2 3.16  23 3.16  42 3.16  44 3.17  36 3.17  20 3.18
                            14 3.21  17 3.22  45 3.22  43 3.24
  27  0.660  0.672  0.329-  61 1.96  50 2.00  21 3.19   3 3.20   9 3.26  18 3.29  15 3.36  24 3.36
                            45 3.37  43 3.44  37 3.58
  28  0.111  0.222  0.080-  14 3.10   5 3.14   2 3.16  44 3.19  32 3.19  40 3.19  34 3.19  36 3.19
                            30 3.19   1 3.19  13 3.19   4 3.19
  29  0.104  0.218  0.236-  15 3.03   6 3.11   2 3.11   5 3.14  33 3.17  45 3.18  14 3.18  41 3.19
                            35 3.21  31 3.21  37 3.22   3 3.59
  30  0.111  0.556  0.080-  17 3.13   5 3.13   8 3.15  32 3.19  42 3.19  38 3.19  40 3.19  36 3.19
                            28 3.19  16 3.19   7 3.19   4 3.19
  31  0.111  0.557  0.237-   6 3.06  39 3.13  17 3.14   8 3.16  37 3.17   9 3.17  33 3.18   5 3.18
                            29 3.21  41 3.24  43 3.26  18 3.46
  32  0.111  0.889  0.080-  11 3.12   8 3.15   2 3.16  28 3.19  34 3.19  44 3.19  30 3.19  42 3.19
                            38 3.19  10 3.19   1 3.19   7 3.19
  33  0.104  0.886  0.235-  12 3.04   2 3.09   8 3.11  45 3.13   9 3.14  11 3.15  29 3.17  31 3.18
                            43 3.23  35 3.23  39 3.24   3 3.64
  34  0.444  0.222  0.080-  14 3.12  11 3.14  23 3.16  38 3.19  40 3.19  32 3.19  42 3.19  28 3.19
                            36 3.19  22 3.19  10 3.19  13 3.19
  35  0.443  0.224  0.236-  12 3.04  15 3.09  43 3.11  23 3.11  14 3.15  41 3.16  11 3.16  37 3.17
                            29 3.21  33 3.23  39 3.26  24 3.45
  36  0.444  0.556  0.080-  14 3.13  17 3.15  26 3.17  42 3.19  38 3.19  44 3.19  30 3.19  28 3.19
                            34 3.19  25 3.19  13 3.19  16 3.19
  37  0.441  0.554  0.234-  26 3.09  17 3.10  14 3.13  39 3.13  43 3.15  15 3.16  31 3.17  35 3.17
                            45 3.18  29 3.22  27 3.58
  38  0.444  0.889  0.080-  20 3.13  11 3.13  17 3.15  40 3.19  34 3.19  44 3.19  36 3.19  30 3.19
                            32 3.19  19 3.19  16 3.19  10 3.19
  39  0.441  0.882  0.236-  12 3.06  17 3.12  31 3.13  21 3.13  37 3.13  20 3.16  41 3.18  11 3.19
                            45 3.19  33 3.24  35 3.26  18 3.53
  40  0.778  0.222  0.080-   5 3.12  20 3.15  23 3.18  38 3.19  34 3.19  44 3.19  28 3.19  30 3.19
                            42 3.19   4 3.19  19 3.19  22 3.19
  41  0.771  0.219  0.235-   6 3.06  23 3.08  20 3.11  21 3.14   5 3.15  35 3.16  43 3.18  39 3.18
                            29 3.19  45 3.24  31 3.24  24 3.47
  42  0.778  0.556  0.080-   8 3.13  23 3.16  26 3.16  36 3.19  44 3.19  30 3.19  32 3.19  34 3.19
                            40 3.19  25 3.19   7 3.19  22 3.19
  43  0.767  0.549  0.242-   9 3.05  35 3.11  37 3.15  45 3.15  41 3.18  33 3.23  23 3.24  26 3.24
                            31 3.26   8 3.33  24 3.35  27 3.44
  44  0.778  0.889  0.080-  20 3.13   2 3.14  26 3.17  28 3.19  40 3.19  42 3.19  32 3.19  38 3.19
                            36 3.19   1 3.19  19 3.19  25 3.19
  45  0.775  0.883  0.241-  21 3.07  33 3.13  43 3.15  37 3.18  29 3.18  39 3.19  26 3.22  41 3.24
                             2 3.26  20 3.29  27 3.37   3 3.48
  46  0.997  0.008  0.396-  53 0.99  52 1.00   3 2.13
  47  0.276  0.963  0.414-  54 0.98  55 1.00
  48  0.906  0.240  0.414-  56 0.98  57 1.00
  49  0.630  0.354  0.388-  59 0.98  58 1.06  24 2.09
  50  0.632  0.624  0.389-  60 0.98  27 2.00
  51  0.345  0.679  0.394-  62 0.98  63 0.99  18 2.11
  52  0.975  0.091  0.409-  46 1.00
  53  0.087  0.009  0.411-  46 0.99
  54  0.375  0.068  0.411-  47 0.98
  55  0.244  0.930  0.385-  47 1.00
  56  0.002  0.348  0.411-  48 0.98
  57  0.859  0.218  0.386-  48 1.00
  58  0.632  0.465  0.393-  49 1.06
  59  0.708  0.350  0.407-  49 0.98
  60  0.724  0.702  0.405-  50 0.98
  61  0.423  0.546  0.326-  15 1.91  18 1.93  27 1.96
  62  0.344  0.769  0.408-  51 0.98
  63  0.441  0.672  0.402-  51 0.99
 
  LATTYP: Found a hexagonal cell.
 ALAT       =     9.5557527542
 C/A-ratio  =     3.4141837076
  
  Lattice vectors:
  
 A1 = (   9.5557527542,   0.0000000000,   0.0000000000)
 A2 = (  -4.7778763771,   8.2755246374,   0.0000000000)
 A3 = (   0.0000000000,   0.0000000000,  32.6250953674)


Analysis of symmetry for initial positions (statically):
=====================================================================
 Subroutine PRICEL returns:
 Original cell was already a primitive cell.
 

 Routine SETGRP: Setting up the symmetry group for a 
 hexagonal supercell.


 Subroutine GETGRP returns: Found  1 space group operations
 (whereof  1 operations were pure point group operations)
 out of a pool of 24 trial point group operations.


The static configuration has the point symmetry C_1 .


Analysis of symmetry for dynamics (positions and initial velocities):
=====================================================================
 Subroutine PRICEL returns:
 Original cell was already a primitive cell.
 

 Routine SETGRP: Setting up the symmetry group for a 
 hexagonal supercell.


 Subroutine GETGRP returns: Found  1 space group operations
 (whereof  1 operations were pure point group operations)
 out of a pool of 24 trial point group operations.


The dynamic configuration has the point symmetry C_1 .


Analysis of constrained symmetry for selective dynamics:
=====================================================================
 Subroutine PRICEL returns:
 Original cell was already a primitive cell.
 

 Routine SETGRP: Setting up the symmetry group for a 
 hexagonal supercell.


 Subroutine GETGRP returns: Found  1 space group operations
 (whereof  1 operations were pure point group operations)
 out of a pool of 24 trial point group operations.


The constrained configuration has the point symmetry C_1 .


 Subroutine INISYM returns: Found  1 space group operations
 (whereof  1 operations are pure point group operations),
 and found     1 'primitive' translations

 
 
 KPOINTS: Auto                                    

Automatic generation of k-mesh.
Space group operators:
 irot       det(A)        alpha          n_x          n_y          n_z        tau_x        tau_y        tau_z
    1     1.000000     0.000000     1.000000     0.000000     0.000000     0.000000     0.000000     0.000000
 
 Subroutine IBZKPT returns following result:
 ===========================================
 
 Found      5 irreducible k-points:
 
 Following reciprocal coordinates:
            Coordinates               Weight
  0.000000  0.000000  0.000000      1.000000
  0.333333 -0.000000  0.000000      2.000000
  0.000000  0.333333  0.000000      2.000000
  0.333333  0.333333  0.000000      2.000000
 -0.333333  0.333333  0.000000      2.000000
 
 Following cartesian coordinates:
            Coordinates               Weight
  0.000000  0.000000  0.000000      1.000000
  0.034883  0.020140  0.000000      2.000000
  0.000000  0.040279  0.000000      2.000000
  0.034883  0.060419  0.000000      2.000000
 -0.034883  0.020140  0.000000      2.000000
 
 TETIRR: Found     24 inequivalent tetrahedra from       54


--------------------------------------------------------------------------------------------------------




 Dimension of arrays:
   k-points           NKPTS =      5   k-points in BZ     NKDIM =      5   number of bands    NBANDS=    102
   number of dos      NEDOS =    301   number of ions     NIONS =     63
   non local maximal  LDIM  =      5   non local SUM 2l+1 LMDIM =     13
   total plane-waves  NPLWV = ******
   max r-space proj   IRMAX =   4509   max aug-charges    IRDMAX=  21536
   dimension x,y,z NGX =    72 NGY =   72 NGZ =  250
   dimension x,y,z NGXF=   144 NGYF=  144 NGZF=  500
   support grid    NGXF=   144 NGYF=  144 NGZF=  500
   ions per type =              45   6  12
   NGX,Y,Z   is equivalent  to a cutoff of  12.53, 12.53, 12.74 a.u.
   NGXF,Y,Z  is equivalent  to a cutoff of  25.05, 25.05, 25.48 a.u.

 SYSTEM =  Mg_slab_in_a_box                        
 POSCAR =  Mg   O    H                             

 Startparameter for this run:
   NWRITE =      2    write-flag & timer
   PREC   = accura    normal or accurate (medium, high low for compatibility)
   ISTART =      0    job   : 0-new  1-cont  2-samecut
   ICHARG =      2    charge: 1-file 2-atom 10-const
   ISPIN  =      1    spin polarized calculation?
   LNONCOLLINEAR =      F non collinear calculations
   LSORBIT =      F    spin-orbit coupling
   INIWAV =      1    electr: 0-lowe 1-rand  2-diag
   LASPH  =      T    aspherical Exc in radial PAW
   METAGGA=      F    non-selfconsistent MetaGGA calc.

 Electronic Relaxation 1
   ENCUT  =  520.0 eV  38.22 Ry    6.18 a.u.  17.77 17.77 60.66*2*pi/ulx,y,z
   ENINI  =  520.0     initial cutoff
   ENAUG  =  605.4 eV  augmentation charge cutoff
   NELM   =    300;   NELMIN=  6; NELMDL=-12     # of ELM steps 
   EDIFF  = 0.5E-05   stopping-criterion for ELM
   LREAL  =      T    real-space projection
   NLSPLINE    = F    spline interpolate recip. space projectors
   LCOMPAT=      F    compatible to vasp.4.4
   GGA_COMPAT  = T    GGA compatible to vasp.4.4-vasp.4.6
   LMAXPAW     = -100 max onsite density
   LMAXMIX     =    2 max onsite mixed and CHGCAR
   VOSKOWN=      0    Vosko Wilk Nusair interpolation
   ROPT   =   -0.00025  -0.00025  -0.00025
 Ionic relaxation
   EDIFFG = 0.5E-04   stopping-criterion for IOM
   NSW    =      0    number of steps for IOM
   NBLOCK =      1;   KBLOCK =      1    inner block; outer block 
   IBRION =     -1    ionic relax: 0-MD 1-quasi-New 2-CG
   NFREE  =      0    steps in history (QN), initial steepest desc. (CG)
   ISIF   =      2    stress and relaxation
   IWAVPR =     10    prediction:  0-non 1-charg 2-wave 3-comb
   ISYM   =      2    0-nonsym 1-usesym 2-fastsym
   LCORR  =      T    Harris-Foulkes like correction to forces

   POTIM  = 0.5000    time-step for ionic-motion
   TEIN   =    0.0    initial temperature
   TEBEG  =    0.0;   TEEND  =   0.0 temperature during run
   SMASS  =  -3.00    Nose mass-parameter (am)
   estimated Nose-frequenzy (Omega)   =  0.10E-29 period in steps =****** mass=  -0.209E-26a.u.
   SCALEE = 1.0000    scale energy and forces
   NPACO  =    256;   APACO  = 16.0  distance and # of slots for P.C.
   PSTRESS=    0.0 pullay stress

  Mass of Ions in am
   POMASS =  24.30 16.00  1.00
  Ionic Valenz
   ZVAL   =   2.00  6.00  1.00
  Atomic Wigner-Seitz radii
   RWIGS  =  -1.00 -1.00 -1.00
  virtual crystal weights 
   VCA    =   1.00  1.00  1.00
   NELECT =     138.0000    total number of electrons
   NUPDOWN=      -1.0000    fix difference up-down

 DOS related values:
   EMIN   =  10.00;   EMAX   =-10.00  energy-range for DOS
   EFERMI =   0.00
   ISMEAR =    -5;   SIGMA  =   0.20  broadening in eV -4-tet -1-fermi 0-gaus

 Electronic relaxation 2 (details)
   IALGO  =     48    algorithm
   LDIAG  =      T    sub-space diagonalisation (order eigenvalues)
   LSUBROT=      F    optimize rotation matrix (better conditioning)
   TURBO    =      0    0=normal 1=particle mesh
   IRESTART =      0    0=no restart 2=restart with 2 vectors
   NREBOOT  =      0    no. of reboots
   NMIN     =      0    reboot dimension
   EREF     =   0.00    reference energy to select bands
   IMIX   =      4    mixing-type and parameters
     AMIX     =   0.40;   BMIX     =  1.00
     AMIX_MAG =   1.60;   BMIX_MAG =  1.00
     AMIN     =   0.10
     WC   =   100.;   INIMIX=   1;  MIXPRE=   1;  MAXMIX= -45

 Intra band minimization:
   WEIMIN = 0.0000     energy-eigenvalue tresh-hold
   EBREAK =  0.12E-07  absolut break condition
   DEPER  =   0.30     relativ break condition  

   TIME   =   0.40     timestep for ELM

  volume/ion in A,a.u.               =      40.95       276.36
  Fermi-wavevector in a.u.,A,eV,Ry     =   0.616828  1.165635  5.176694  0.380476
  Thomas-Fermi vector in A             =   1.674695
 
 Write flags
   LWAVE        =      F    write WAVECAR
   LDOWNSAMPLE  =      F    k-point downsampling of WAVECAR
   LCHARG       =      T    write CHGCAR
   LVTOT        =      F    write LOCPOT, total local potential
   LVHAR        =      T    write LOCPOT, Hartree potential only
   LELF         =      F    write electronic localiz. function (ELF)
   LORBIT       =      0    0 simple, 1 ext, 2 COOP (PROOUT), +10 PAW based schemes


 Dipole corrections
   LMONO  =      F    monopole corrections only (constant potential shift)
   LDIPOL =      T    correct potential (dipole corrections)
   IDIPOL =      3    1-x, 2-y, 3-z, 4-all directions 
   EPSILON=  1.0000000 bulk dielectric constant

 Exchange correlation treatment:
   GGA     =    BO    GGA type
   LEXCH   =    42    internal setting for exchange type
   VOSKOWN=      0    Vosko Wilk Nusair interpolation
   LHFCALC =     F    Hartree Fock is set to
   LHFONE  =     F    Hartree Fock one center treatment
   AEXX    =    0.0000 exact exchange contribution

 vdW DFT:
   LUSE_VDW   =     T    switch on vdW DFT
   Zab_VDW    =-.8491    correlation parameter
   PARAM1     =0.1833
   PARAM2     =0.2200
   PARAM3     =0.0000
   -- rVV10 --
   BPARAM     = 6.3000
   CPARAM     = 0.0093

 Linear response parameters
   LEPSILON=     F    determine dielectric tensor
   LRPA    =     F    only Hartree local field effects (RPA)
   LNABLA  =     F    use nabla operator in PAW spheres
   LVEL    =     F    velocity operator in full k-point grid
   LINTERFAST=   F  fast interpolation
   KINTER  =     0    interpolate to denser k-point grid
   CSHIFT  =0.1000    complex shift for real part using Kramers Kronig
   OMEGAMAX=  -1.0    maximum frequency
   DEG_THRESHOLD= 0.2000000E-02 threshold for treating states as degnerate
   RTIME   =   -0.100 relaxation time in fs
  (WPLASMAI=    0.000 imaginary part of plasma frequency in eV, 0.658/RTIME)
   DFIELD  = 0.0000000 0.0000000 0.0000000 field for delta impulse in time
 
 Orbital magnetization related:
   ORBITALMAG=     F  switch on orbital magnetization
   LCHIMAG   =     F  perturbation theory with respect to B field
   DQ        =  0.001000  dq finite difference perturbation B field
   LLRAUG    =     F  two centre corrections for induced B field



--------------------------------------------------------------------------------------------------------


 Static calculation
 charge density and potential will be updated during run
 non-spin polarized calculation
 RMM-DIIS sequential band-by-band
 perform sub-space diagonalisation
    before iterative eigenvector-optimisation
 modified Broyden-mixing scheme, WC =      100.0
 initial mixing is a Kerker type mixing with AMIX =  0.4000 and BMIX =      1.0000
 Hartree-type preconditioning will be used
 using additional bands           33
 real space projection scheme for non local part
 use partial core corrections
 calculate Harris-corrections to forces 
   (improved forces if not selfconsistent)
 use gradient corrections 
 use of overlap-Matrix (Vanderbilt PP)
 Fermi weights with tetrahedron method with Bloechl corrections


--------------------------------------------------------------------------------------------------------


  energy-cutoff  :      520.00
  volume of cell :     2579.96
      direct lattice vectors                 reciprocal lattice vectors
     9.555752754  0.000000000  0.000000000     0.104649003  0.060419130  0.000000000
    -4.777876377  8.275524637  0.000000000     0.000000000  0.120838260  0.000000000
     0.000000000  0.000000000 32.625095367     0.000000000  0.000000000  0.030651251

  length of vectors
     9.555752754  9.555752754 32.625095367     0.120838260  0.120838260  0.030651251


 
 k-points in units of 2pi/SCALE and weight: Auto                                    
   0.00000000  0.00000000  0.00000000       0.111
   0.03488300  0.02013971  0.00000000       0.222
   0.00000000  0.04027942  0.00000000       0.222
   0.03488300  0.06041913  0.00000000       0.222
  -0.03488300  0.02013971  0.00000000       0.222
 
 k-points in reciprocal lattice and weights: Auto                                    
   0.00000000  0.00000000  0.00000000       0.111
   0.33333333 -0.00000000  0.00000000       0.222
   0.00000000  0.33333333  0.00000000       0.222
   0.33333333  0.33333333  0.00000000       0.222
  -0.33333333  0.33333333  0.00000000       0.222
 
 position of ions in fractional coordinates (direct lattice) 
   0.00000000  0.00000000  0.00000000
   0.99707982  0.99828205  0.15824017
   0.99890872  0.00317084  0.33116994
   0.00000001  0.33333336  0.00000000
   0.99845875  0.33302844  0.15746069
   0.98720526  0.33092091  0.31086162
   0.00000002  0.66666672  0.00000000
   0.99697840  0.66516575  0.15783178
   0.99756958  0.67299252  0.31445419
   0.33333334  0.00000000  0.00000000
   0.33106684  0.99826024  0.15736023
   0.32413327  0.99802124  0.30938230
   0.33333335  0.33333336  0.00000000
   0.33066274  0.33093926  0.15685745
   0.31723080  0.32290135  0.31131598
   0.33333336  0.66666672  0.00000000
   0.33038992  0.66588661  0.15799198
   0.31314120  0.66843457  0.32968792
   0.66666668  0.00000000  0.00000000
   0.66485566  0.99733788  0.15775292
   0.66327200  0.00404376  0.31398838
   0.66666668  0.33333336  0.00000000
   0.66498465  0.33409806  0.15874075
   0.65750578  0.31955717  0.32624825
   0.66666670  0.66666672  0.00000000
   0.66723473  0.66624623  0.15892793
   0.65976087  0.67239319  0.32921256
   0.11111113  0.22222222  0.07982145
   0.10425316  0.21781824  0.23561370
   0.11111114  0.55555561  0.07982145
   0.11124166  0.55701266  0.23672088
   0.11111116  0.88888894  0.07982145
   0.10407612  0.88625816  0.23479584
   0.44444450  0.22222222  0.07982145
   0.44286725  0.22359304  0.23568008
   0.44444450  0.55555561  0.07982145
   0.44103177  0.55406453  0.23441343
   0.44444451  0.88888894  0.07982145
   0.44097596  0.88197814  0.23639114
   0.77777779  0.22222222  0.07982145
   0.77064418  0.21870975  0.23480486
   0.77777781  0.55555561  0.07982145
   0.76697690  0.54885593  0.24168631
   0.77777784  0.88888894  0.07982145
   0.77536278  0.88297513  0.24089283
   0.99652861  0.00833680  0.39628487
   0.27637679  0.96255537  0.41395276
   0.90641993  0.24000451  0.41412517
   0.62988022  0.35406059  0.38834152
   0.63156333  0.62362938  0.38912558
   0.34489359  0.67919712  0.39391517
   0.97494860  0.09104082  0.40858103
   0.08707848  0.00861829  0.41084859
   0.37512305  0.06819945  0.41142228
   0.24426436  0.93010020  0.38494652
   0.00219447  0.34758034  0.41148926
   0.85930869  0.21782124  0.38600228
   0.63164589  0.46500626  0.39260041
   0.70768708  0.35015436  0.40710154
   0.72365297  0.70173289  0.40527432
   0.42323341  0.54609672  0.32632407
   0.34444368  0.76922415  0.40842029
   0.44080263  0.67157856  0.40218986
 
 position of ions in cartesian coordinates  (Angst):
   0.00000000  0.00000000  0.00000000
   4.75818004  8.26130772  5.16260055
   9.53017491  0.02624038 10.80445090
  -1.59262550  2.75850844  0.00000000
   7.94985622  2.75598504  5.13717010
   7.85239018  2.73854417 10.14189014
  -3.18525100  5.51701689  0.00000000
   6.34879938  5.50459559  5.14927678
   6.31705318  5.56936620 10.25909805
   3.18525100  0.00000000  0.00000000
  -1.60597114  8.26112724  5.13389259
  -1.67108475  8.25914935 10.09362710
   1.59262550  2.75850844  0.00000000
   1.57854455  2.73869598  5.11748933
   1.48859638  2.67217810 10.15671354
  -0.00000001  5.51701689  0.00000000
  -0.02439949  5.51056107  5.15450341
  -0.20139783  5.53164676 10.75609979
   6.37050200  0.00000000  0.00000000
   1.58803921  8.25349420  5.14670416
   6.31874265  0.03346421 10.24390078
   4.77787638  2.75850844  0.00000000
   4.75814971  2.76483670  5.17893199
   4.75615799  2.64450320 10.64388042
   3.18525100  5.51701689  0.00000000
   3.19268798  5.51353709  5.18503900
   3.09190020  5.56440645 10.74059108
   0.00000017  1.83900547  2.60418248
  -0.04449117  1.80256018  7.68691947
  -1.59262550  4.59751415  2.60418248
  -1.59833983  4.60957195  7.72304145
  -3.18525076  7.35602236  2.60418248
  -3.23990627  7.33425128  7.66023658
   3.18525147  1.83900547  2.60418248
   3.16363007  1.85034971  7.68908522
   1.59262574  4.59751415  2.60418248
   1.56713870  4.58517468  7.64776054
   0.00000039  7.35602236  2.60418248
  -0.00012532  7.29883185  7.71228345
   6.37050200  1.83900547  2.60418248
   6.31911714  1.80993788  7.66053096
   4.77787638  4.59751415  2.60418248
   4.70667583  4.54207078  7.88503904
   3.18525124  7.35602236  2.60418248
   3.19042901  7.30708244  7.85915146
   9.48274881  0.06899138 12.92883177
  -1.95798232  7.96565071 13.50524818
   7.51481281  1.98616328 13.51087326
   4.32732193  2.93003715 12.66967903
   3.05543893  5.16086032 12.69525914
   0.05059802  5.62071251 12.85151984
   8.88138602  0.75341055 13.32999510
   0.79092330  0.07132090 13.40397459
   3.25873463  0.56438619 13.42269106
  -2.10977393  7.69706716 12.55891686
  -1.63972610  2.87640970 13.42487621
   7.17061846  1.80258505 12.59336113
   3.81410960  3.84817072 12.80862579
   5.08948849  2.89771107 13.28172666
   3.56225584  5.80720783 13.22211330
   1.43513121  4.51923685 10.64635389
  -0.38383930  6.36573340 13.32475084
   1.00348156  5.55766494 13.12148263
 


--------------------------------------------------------------------------------------------------------


 k-point  1 :   0.0000 0.0000 0.0000  plane waves:   69403
 k-point  2 :   0.3333-0.0000 0.0000  plane waves:   69509
 k-point  3 :   0.0000 0.3333 0.0000  plane waves:   69509
 k-point  4 :   0.3333 0.3333 0.0000  plane waves:   69474
 k-point  5 :  -0.3333 0.3333 0.0000  plane waves:   69509

 maximum and minimum number of plane-waves per node :      2924     2870

 maximum number of plane-waves:     69509
 maximum index in each direction: 
   IXMAX=   18   IYMAX=   17   IZMAX=   60
   IXMIN=  -18   IYMIN=  -18   IZMIN=  -60


 real space projection operators:
  total allocation   :      22589.27 KBytes
  max/ min on nodes  :       1319.11        529.05


 parallel 3D FFT for wavefunctions:
    minimum data exchange during FFTs selected (reduces bandwidth)
 parallel 3D FFT for charge:
    minimum data exchange during FFTs selected (reduces bandwidth)


 total amount of memory used by VASP MPI-rank0    62232. kBytes
=======================================================================

   base      :      30000. kBytes
   nonlr-proj:       6329. kBytes
   fftplans  :       6459. kBytes
   grid      :      11407. kBytes
   one-center:         24. kBytes
   wavefun   :       8013. kBytes
 
     INWAV:  cpu time    0.0001: real time    0.0003
 Broyden mixing: mesh for mixing (old mesh)
   NGX = 35   NGY = 35   NGZ =121
  (NGX  =144   NGY  =144   NGZ  =500)
  gives a total of 148225 points

 initial charge density was supplied:
 charge density of overlapping atoms calculated
 number of electron     138.0000000 magnetization 
 keeping initial charge density in first step


--------------------------------------------------------------------------------------------------------


 Maximum index for non-local projection operator          296
 Maximum index for augmentation-charges          837 (set IRDMAX)


--------------------------------------------------------------------------------------------------------


 First call to EWALD:  gamma=   0.129
 Maximum number of real-space cells 4x 4x 1
 Maximum number of reciprocal cells 2x 2x 6

    FEWALD:  cpu time    0.0071: real time    0.0071


--------------------------------------- Iteration      1(   1)  ---------------------------------------


vdW kernel read from vdw_kernel.bindat
  0.0000  0.2424  0.5071  0.7962  1.1119  1.4567  1.8333  2.2446  2.6937  3.1842
  3.7199  4.3049  4.9438  5.6415  6.4036  7.2358  8.1446  9.1372 10.2212 11.4050
 12.6979 14.1099 15.6519 17.3360 19.1751 21.1837 23.3773 25.7729 28.3892 31.2465
 34.3669 37.7748 41.4965 45.5611 50.0000
 
    POTLOK:  cpu time   11.8225: real time   12.4389
    SETDIJ:  cpu time    0.1360: real time    0.1360
    EDDIAG:  cpu time    2.7764: real time    2.7771
  RMM-DIIS:  cpu time    2.2155: real time    2.2158
    ORTHCH:  cpu time    1.0688: real time    1.0689
 BZINTS: Fermi energy:  9.584755;138.000000 electrons
         Band energy: 214.008350;  BLOECHL correction: -0.166150
       DOS:  cpu time    0.0049: real time    0.0049
    --------------------------------------------
      LOOP:  cpu time   18.0240: real time   18.6415

 eigenvalue-minimisations  :   510
 total energy-change (2. order) : 0.1242477E+04  (-0.2793518E+04)
 number of electron     138.0000000 magnetization 
 augmentation part      138.0000000 magnetization 

 DIPCOR: dipole corrections for dipol
 direction  3 min pos   365,
 dipolmoment           0.000000      0.000000     -0.000310 electrons x Angstroem
 Tr[quadrupol]     -1900.556612

 energy correction for charged system         0.000000 eV
 dipol+quadrupol energy correction           -0.000000 eV
 added-field ion interaction          0.001391 eV  (added to PSCEN)


 Free energy of the ion-electron system (eV)
  ---------------------------------------------------
  alpha Z        PSCENC =        63.16245394
  Ewald energy   TEWEN  =     12947.61092058
  -Hartree energ DENC   =    -16175.23523683
  -exchange      EXHF   =         0.00000000
  -V(xc)+E(xc)   XCENC  =     -2051.20305552
  PAW double counting   =      5135.15659847    -2719.01140655
  entropy T*S    EENTRO =         0.00000000
  eigenvalues    EBANDS =       214.00834971
  atomic energy  EATOM  =      3827.98814510
  Solvation  Ediel_sol  =         0.00000000
  ---------------------------------------------------
  free energy    TOTEN  =      1242.47676891 eV

  energy without entropy =     1242.47676891  energy(sigma->0) =     1242.47676891


--------------------------------------------------------------------------------------------------------




--------------------------------------- Iteration      1(   2)  ---------------------------------------


    EDDIAG:  cpu time    2.7483: real time    2.7709
  RMM-DIIS:  cpu time    2.2094: real time    2.2097
    ORTHCH:  cpu time    1.0691: real time    1.0693
 BZINTS: Fermi energy:  2.125469;138.000000 electrons
         Band energy:-483.400880;  BLOECHL correction: -0.278771
       DOS:  cpu time    0.0039: real time    0.0039
    --------------------------------------------
      LOOP:  cpu time    6.0307: real time    6.0538

 eigenvalue-minimisations  :   510
 total energy-change (2. order) :-0.6974092E+03  (-0.7561969E+03)
 number of electron     138.0000000 magnetization 
 augmentation part      138.0000000 magnetization 

 DIPCOR: dipole corrections for dipol
 direction  3 min pos   365,
 dipolmoment           0.000000      0.000000     -0.000310 electrons x Angstroem
 Tr[quadrupol]     -1900.556612

 energy correction for charged system         0.000000 eV
 dipol+quadrupol energy correction           -0.000000 eV
 added-field ion interaction          0.001391 eV  (added to PSCEN)


 Free energy of the ion-electron system (eV)
  ---------------------------------------------------
  alpha Z        PSCENC =        63.16245394
  Ewald energy   TEWEN  =     12947.61092058
  -Hartree energ DENC   =    -16175.23523683
  -exchange      EXHF   =         0.00000000
  -V(xc)+E(xc)   XCENC  =     -2051.20305552
  PAW double counting   =      5135.15659847    -2719.01140655
  entropy T*S    EENTRO =         0.00000000
  eigenvalues    EBANDS =      -483.40088042
  atomic energy  EATOM  =      3827.98814510
  Solvation  Ediel_sol  =         0.00000000
  ---------------------------------------------------
  free energy    TOTEN  =       545.06753879 eV

  energy without entropy =      545.06753879  energy(sigma->0) =      545.06753879


--------------------------------------------------------------------------------------------------------




--------------------------------------- Iteration      1(   3)  ---------------------------------------


    EDDIAG:  cpu time    2.7470: real time    2.7707
  RMM-DIIS:  cpu time    2.4916: real time    2.4919
    ORTHCH:  cpu time    1.2848: real time    1.2850
 BZINTS: Fermi energy:  0.387299;138.000000 electrons
         Band energy:-718.346545;  BLOECHL correction: -0.375709
       DOS:  cpu time    0.0090: real time    0.0090
    --------------------------------------------
      LOOP:  cpu time    6.5324: real time    6.5566

 eigenvalue-minimisations  :   510
 total energy-change (2. order) :-0.2349457E+03  (-0.2988153E+03)
 number of electron     138.0000000 magnetization 
 augmentation part      138.0000000 magnetization 

 DIPCOR: dipole corrections for dipol
 direction  3 min pos   365,
 dipolmoment           0.000000      0.000000     -0.000310 electrons x Angstroem
 Tr[quadrupol]     -1900.556612

 energy correction for charged system         0.000000 eV
 dipol+quadrupol energy correction           -0.000000 eV
 added-field ion interaction          0.001391 eV  (added to PSCEN)


 Free energy of the ion-electron system (eV)
  ---------------------------------------------------
  alpha Z        PSCENC =        63.16245394
  Ewald energy   TEWEN  =     12947.61092058
  -Hartree energ DENC   =    -16175.23523683
  -exchange      EXHF   =         0.00000000
  -V(xc)+E(xc)   XCENC  =     -2051.20305552
  PAW double counting   =      5135.15659847    -2719.01140655
  entropy T*S    EENTRO =         0.00000000
  eigenvalues    EBANDS =      -718.34654544
  atomic energy  EATOM  =      3827.98814510
  Solvation  Ediel_sol  =         0.00000000
  ---------------------------------------------------
  free energy    TOTEN  =       310.12187376 eV

  energy without entropy =      310.12187376  energy(sigma->0) =      310.12187376


--------------------------------------------------------------------------------------------------------




--------------------------------------- Iteration      1(   4)  ---------------------------------------


    EDDIAG:  cpu time    2.9207: real time    2.9425
  RMM-DIIS:  cpu time    2.2110: real time    2.2113
    ORTHCH:  cpu time    1.0681: real time    1.0682
 BZINTS: Fermi energy: -0.756195;138.000000 electrons
         Band energy:-889.799099;  BLOECHL correction: -0.131090
       DOS:  cpu time    0.0060: real time    0.0060
    --------------------------------------------
      LOOP:  cpu time    6.2059: real time    6.2281

 eigenvalue-minimisations  :   510
 total energy-change (2. order) :-0.1714526E+03  (-0.1476208E+03)
 number of electron     138.0000000 magnetization 
 augmentation part      138.0000000 magnetization 

 DIPCOR: dipole corrections for dipol
 direction  3 min pos   365,
 dipolmoment           0.000000      0.000000     -0.000310 electrons x Angstroem
 Tr[quadrupol]     -1900.556612

 energy correction for charged system         0.000000 eV
 dipol+quadrupol energy correction           -0.000000 eV
 added-field ion interaction          0.001391 eV  (added to PSCEN)


 Free energy of the ion-electron system (eV)
  ---------------------------------------------------
  alpha Z        PSCENC =        63.16245394
  Ewald energy   TEWEN  =     12947.61092058
  -Hartree energ DENC   =    -16175.23523683
  -exchange      EXHF   =         0.00000000
  -V(xc)+E(xc)   XCENC  =     -2051.20305552
  PAW double counting   =      5135.15659847    -2719.01140655
  entropy T*S    EENTRO =         0.00000000
  eigenvalues    EBANDS =      -889.79909946
  atomic energy  EATOM  =      3827.98814510
  Solvation  Ediel_sol  =         0.00000000
  ---------------------------------------------------
  free energy    TOTEN  =       138.66931974 eV

  energy without entropy =      138.66931974  energy(sigma->0) =      138.66931974


--------------------------------------------------------------------------------------------------------




--------------------------------------- Iteration      1(   5)  ---------------------------------------


    EDDIAG:  cpu time    2.7467: real time    2.7719
  RMM-DIIS:  cpu time    2.2103: real time    2.2106
    ORTHCH:  cpu time    1.0647: real time    1.0649
 BZINTS: Fermi energy: -1.302052;138.000000 electrons
         Band energy:***********;  BLOECHL correction: -0.114545
       DOS:  cpu time    0.0083: real time    0.0083
    --------------------------------------------
      LOOP:  cpu time    6.0301: real time    6.0556

 eigenvalue-minimisations  :   510
 total energy-change (2. order) :-0.1168873E+03  (-0.9309043E+02)
 number of electron     138.0000000 magnetization 
 augmentation part      138.0000000 magnetization 

 DIPCOR: dipole corrections for dipol
 direction  3 min pos   365,
 dipolmoment           0.000000      0.000000     -0.000310 electrons x Angstroem
 Tr[quadrupol]     -1900.556612

 energy correction for charged system         0.000000 eV
 dipol+quadrupol energy correction           -0.000000 eV
 added-field ion interaction          0.001391 eV  (added to PSCEN)


 Free energy of the ion-electron system (eV)
  ---------------------------------------------------
  alpha Z        PSCENC =        63.16245394
  Ewald energy   TEWEN  =     12947.61092058
  -Hartree energ DENC   =    -16175.23523683
  -exchange      EXHF   =         0.00000000
  -V(xc)+E(xc)   XCENC  =     -2051.20305552
  PAW double counting   =      5135.15659847    -2719.01140655
  entropy T*S    EENTRO =         0.00000000
  eigenvalues    EBANDS =     -1006.68644860
  atomic energy  EATOM  =      3827.98814510
  Solvation  Ediel_sol  =         0.00000000
  ---------------------------------------------------
  free energy    TOTEN  =        21.78197060 eV

  energy without entropy =       21.78197060  energy(sigma->0) =       21.78197060


--------------------------------------------------------------------------------------------------------




--------------------------------------- Iteration      1(   6)  ---------------------------------------


    EDDIAG:  cpu time    2.7485: real time    2.7690
  RMM-DIIS:  cpu time    2.2164: real time    2.2167
    ORTHCH:  cpu time    1.0634: real time    1.0635
 BZINTS: Fermi energy: -1.355082;138.000000 electrons
         Band energy:***********;  BLOECHL correction: -0.052679
       DOS:  cpu time    0.0080: real time    0.0080
    --------------------------------------------
      LOOP:  cpu time    6.0363: real time    6.0572

 eigenvalue-minimisations  :   510
 total energy-change (2. order) :-0.6471186E+02  (-0.4909523E+02)
 number of electron     138.0000000 magnetization 
 augmentation part      138.0000000 magnetization 

 DIPCOR: dipole corrections for dipol
 direction  3 min pos   365,
 dipolmoment           0.000000      0.000000     -0.000310 electrons x Angstroem
 Tr[quadrupol]     -1900.556612

 energy correction for charged system         0.000000 eV
 dipol+quadrupol energy correction           -0.000000 eV
 added-field ion interaction          0.001391 eV  (added to PSCEN)


 Free energy of the ion-electron system (eV)
  ---------------------------------------------------
  alpha Z        PSCENC =        63.16245394
  Ewald energy   TEWEN  =     12947.61092058
  -Hartree energ DENC   =    -16175.23523683
  -exchange      EXHF   =         0.00000000
  -V(xc)+E(xc)   XCENC  =     -2051.20305552
  PAW double counting   =      5135.15659847    -2719.01140655
  entropy T*S    EENTRO =         0.00000000
  eigenvalues    EBANDS =     -1071.39830965
  atomic energy  EATOM  =      3827.98814510
  Solvation  Ediel_sol  =         0.00000000
  ---------------------------------------------------
  free energy    TOTEN  =       -42.92989044 eV

  energy without entropy =      -42.92989044  energy(sigma->0) =      -42.92989044


--------------------------------------------------------------------------------------------------------




--------------------------------------- Iteration      1(   7)  ---------------------------------------


    EDDIAG:  cpu time    2.7702: real time    2.7897
  RMM-DIIS:  cpu time    2.2116: real time    2.2119
    ORTHCH:  cpu time    1.0713: real time    1.0714
 BZINTS: Fermi energy: -1.425278;138.000000 electrons
         Band energy:***********;  BLOECHL correction: -0.073224
       DOS:  cpu time    0.0044: real time    0.0044
    --------------------------------------------
      LOOP:  cpu time    6.0575: real time    6.0774

 eigenvalue-minimisations  :   510
 total energy-change (2. order) :-0.2775998E+02  (-0.2079253E+02)
 number of electron     138.0000000 magnetization 
 augmentation part      138.0000000 magnetization 

 DIPCOR: dipole corrections for dipol
 direction  3 min pos   365,
 dipolmoment           0.000000      0.000000     -0.000310 electrons x Angstroem
 Tr[quadrupol]     -1900.556612

 energy correction for charged system         0.000000 eV
 dipol+quadrupol energy correction           -0.000000 eV
 added-field ion interaction          0.001391 eV  (added to PSCEN)


 Free energy of the ion-electron system (eV)
  ---------------------------------------------------
  alpha Z        PSCENC =        63.16245394
  Ewald energy   TEWEN  =     12947.61092058
  -Hartree energ DENC   =    -16175.23523683
  -exchange      EXHF   =         0.00000000
  -V(xc)+E(xc)   XCENC  =     -2051.20305552
  PAW double counting   =      5135.15659847    -2719.01140655
  entropy T*S    EENTRO =         0.00000000
  eigenvalues    EBANDS =     -1099.15828734
  atomic energy  EATOM  =      3827.98814510
  Solvation  Ediel_sol  =         0.00000000
  ---------------------------------------------------
  free energy    TOTEN  =       -70.68986813 eV

  energy without entropy =      -70.68986813  energy(sigma->0) =      -70.68986813


--------------------------------------------------------------------------------------------------------




--------------------------------------- Iteration      1(   8)  ---------------------------------------


    EDDIAG:  cpu time    2.7507: real time    2.7734
  RMM-DIIS:  cpu time    2.2136: real time    2.2139
    ORTHCH:  cpu time    1.0698: real time    1.0699
 BZINTS: Fermi energy: -1.469393;138.000000 electrons
         Band energy:***********;  BLOECHL correction: -0.069944
       DOS:  cpu time    0.0055: real time    0.0055
    --------------------------------------------
      LOOP:  cpu time    6.0395: real time    6.0627

 eigenvalue-minimisations  :   510
 total energy-change (2. order) :-0.7582415E+01  (-0.6164370E+01)
 number of electron     138.0000000 magnetization 
 augmentation part      138.0000000 magnetization 

 DIPCOR: dipole corrections for dipol
 direction  3 min pos   365,
 dipolmoment           0.000000      0.000000     -0.000310 electrons x Angstroem
 Tr[quadrupol]     -1900.556612

 energy correction for charged system         0.000000 eV
 dipol+quadrupol energy correction           -0.000000 eV
 added-field ion interaction          0.001391 eV  (added to PSCEN)


 Free energy of the ion-electron system (eV)
  ---------------------------------------------------
  alpha Z        PSCENC =        63.16245394
  Ewald energy   TEWEN  =     12947.61092058
  -Hartree energ DENC   =    -16175.23523683
  -exchange      EXHF   =         0.00000000
  -V(xc)+E(xc)   XCENC  =     -2051.20305552
  PAW double counting   =      5135.15659847    -2719.01140655
  entropy T*S    EENTRO =         0.00000000
  eigenvalues    EBANDS =     -1106.74070250
  atomic energy  EATOM  =      3827.98814510
  Solvation  Ediel_sol  =         0.00000000
  ---------------------------------------------------
  free energy    TOTEN  =       -78.27228329 eV

  energy without entropy =      -78.27228329  energy(sigma->0) =      -78.27228329


--------------------------------------------------------------------------------------------------------




--------------------------------------- Iteration      1(   9)  ---------------------------------------


    EDDIAG:  cpu time    2.7459: real time    2.7659
  RMM-DIIS:  cpu time    5.1490: real time    5.1497
    ORTHCH:  cpu time    1.0654: real time    1.0655
 BZINTS: Fermi energy: -1.502737;138.000000 electrons
         Band energy:***********;  BLOECHL correction: -0.066416
       DOS:  cpu time    0.0060: real time    0.0060
    --------------------------------------------
      LOOP:  cpu time    8.9662: real time    8.9871

 eigenvalue-minimisations  :  1476
 total energy-change (2. order) :-0.2295016E+01  (-0.2199702E+01)
 number of electron     138.0000000 magnetization 
 augmentation part      138.0000000 magnetization 

 DIPCOR: dipole corrections for dipol
 direction  3 min pos   365,
 dipolmoment           0.000000      0.000000     -0.000310 electrons x Angstroem
 Tr[quadrupol]     -1900.556612

 energy correction for charged system         0.000000 eV
 dipol+quadrupol energy correction           -0.000000 eV
 added-field ion interaction          0.001391 eV  (added to PSCEN)


 Free energy of the ion-electron system (eV)
  ---------------------------------------------------
  alpha Z        PSCENC =        63.16245394
  Ewald energy   TEWEN  =     12947.61092058
  -Hartree energ DENC   =    -16175.23523683
  -exchange      EXHF   =         0.00000000
  -V(xc)+E(xc)   XCENC  =     -2051.20305552
  PAW double counting   =      5135.15659847    -2719.01140655
  entropy T*S    EENTRO =         0.00000000
  eigenvalues    EBANDS =     -1109.03571853
  atomic energy  EATOM  =      3827.98814510
  Solvation  Ediel_sol  =         0.00000000
  ---------------------------------------------------
  free energy    TOTEN  =       -80.56729933 eV

  energy without entropy =      -80.56729933  energy(sigma->0) =      -80.56729933


--------------------------------------------------------------------------------------------------------




--------------------------------------- Iteration      1(  10)  ---------------------------------------


    EDDIAG:  cpu time    2.7529: real time    2.7754
  RMM-DIIS:  cpu time    5.9816: real time    5.9823
    ORTHCH:  cpu time    1.0590: real time    1.0592
 BZINTS: Fermi energy: -1.505377;138.000000 electrons
         Band energy:***********;  BLOECHL correction: -0.064778
       DOS:  cpu time    0.0075: real time    0.0075
    --------------------------------------------
      LOOP:  cpu time    9.8010: real time    9.8243

 eigenvalue-minimisations  :  1750
 total energy-change (2. order) :-0.2834383E+00  (-0.3010181E+00)
 number of electron     138.0000000 magnetization 
 augmentation part      138.0000000 magnetization 

 DIPCOR: dipole corrections for dipol
 direction  3 min pos   365,
 dipolmoment           0.000000      0.000000     -0.000310 electrons x Angstroem
 Tr[quadrupol]     -1900.556612

 energy correction for charged system         0.000000 eV
 dipol+quadrupol energy correction           -0.000000 eV
 added-field ion interaction          0.001391 eV  (added to PSCEN)


 Free energy of the ion-electron system (eV)
  ---------------------------------------------------
  alpha Z        PSCENC =        63.16245394
  Ewald energy   TEWEN  =     12947.61092058
  -Hartree energ DENC   =    -16175.23523683
  -exchange      EXHF   =         0.00000000
  -V(xc)+E(xc)   XCENC  =     -2051.20305552
  PAW double counting   =      5135.15659847    -2719.01140655
  entropy T*S    EENTRO =         0.00000000
  eigenvalues    EBANDS =     -1109.31915680
  atomic energy  EATOM  =      3827.98814510
  Solvation  Ediel_sol  =         0.00000000
  ---------------------------------------------------
  free energy    TOTEN  =       -80.85073760 eV

  energy without entropy =      -80.85073760  energy(sigma->0) =      -80.85073760


--------------------------------------------------------------------------------------------------------




--------------------------------------- Iteration      1(  11)  ---------------------------------------


    EDDIAG:  cpu time    2.7553: real time    2.7776
  RMM-DIIS:  cpu time    5.9285: real time    5.9292
    ORTHCH:  cpu time    1.0725: real time    1.0727
 BZINTS: Fermi energy: -1.505942;138.000000 electrons
         Band energy:***********;  BLOECHL correction: -0.064482
       DOS:  cpu time    0.0035: real time    0.0035
    --------------------------------------------
      LOOP:  cpu time    9.7598: real time    9.7830

 eigenvalue-minimisations  :  1705
 total energy-change (2. order) : 0.2365290E-03  (-0.1622095E-01)
 number of electron     138.0000000 magnetization 
 augmentation part      138.0000000 magnetization 

 DIPCOR: dipole corrections for dipol
 direction  3 min pos   365,
 dipolmoment           0.000000      0.000000     -0.000310 electrons x Angstroem
 Tr[quadrupol]     -1900.556612

 energy correction for charged system         0.000000 eV
 dipol+quadrupol energy correction           -0.000000 eV
 added-field ion interaction          0.001391 eV  (added to PSCEN)


 Free energy of the ion-electron system (eV)
  ---------------------------------------------------
  alpha Z        PSCENC =        63.16245394
  Ewald energy   TEWEN  =     12947.61092058
  -Hartree energ DENC   =    -16175.23523683
  -exchange      EXHF   =         0.00000000
  -V(xc)+E(xc)   XCENC  =     -2051.20305552
  PAW double counting   =      5135.15659847    -2719.01140655
  entropy T*S    EENTRO =         0.00000000
  eigenvalues    EBANDS =     -1109.31892027
  atomic energy  EATOM  =      3827.98814510
  Solvation  Ediel_sol  =         0.00000000
  ---------------------------------------------------
  free energy    TOTEN  =       -80.85050107 eV

  energy without entropy =      -80.85050107  energy(sigma->0) =      -80.85050107


--------------------------------------------------------------------------------------------------------




--------------------------------------- Iteration      1(  12)  ---------------------------------------


    EDDIAG:  cpu time    2.7596: real time    2.7756
  RMM-DIIS:  cpu time    6.2290: real time    6.2299
    ORTHCH:  cpu time    1.0719: real time    1.0721
 BZINTS: Fermi energy: -1.506004;138.000000 electrons
         Band energy:***********;  BLOECHL correction: -0.064448
       DOS:  cpu time    0.0052: real time    0.0052
    CHARGE:  cpu time    0.5059: real time    0.5060
    MIXING:  cpu time    0.0037: real time    0.0037
    --------------------------------------------
      LOOP:  cpu time   10.5753: real time   10.5924

 eigenvalue-minimisations  :  1811
 total energy-change (2. order) :-0.2670723E-02  (-0.3517029E-02)
 number of electron     138.0000006 magnetization 
 augmentation part        5.2719873 magnetization 

 DIPCOR: dipole corrections for dipol
 direction  3 min pos   365,
 dipolmoment           0.000000      0.000000     -0.000310 electrons x Angstroem
 Tr[quadrupol]     -1900.556612

 energy correction for charged system         0.000000 eV
 dipol+quadrupol energy correction           -0.000000 eV
 added-field ion interaction          0.001391 eV  (added to PSCEN)


 Broyden mixing:
  rms(total) = 0.20246E+01    rms(broyden)= 0.20236E+01
  rms(prec ) = 0.21172E+01
  weight for this iteration     100.00

 Free energy of the ion-electron system (eV)
  ---------------------------------------------------
  alpha Z        PSCENC =        63.16245394
  Ewald energy   TEWEN  =     12947.61092058
  -Hartree energ DENC   =    -16175.23523683
  -exchange      EXHF   =         0.00000000
  -V(xc)+E(xc)   XCENC  =     -2051.20305552
  PAW double counting   =      5135.15659847    -2719.01140655
  entropy T*S    EENTRO =         0.00000000
  eigenvalues    EBANDS =     -1109.32159100
  atomic energy  EATOM  =      3827.98814510
  Solvation  Ediel_sol  =         0.00000000
  ---------------------------------------------------
  free energy    TOTEN  =       -80.85317179 eV

  energy without entropy =      -80.85317179  energy(sigma->0) =      -80.85317179


--------------------------------------------------------------------------------------------------------




--------------------------------------- Iteration      1(  13)  ---------------------------------------


    POTLOK:  cpu time    9.7513: real time    9.7746
    SETDIJ:  cpu time    0.1354: real time    0.1354
    EDDIAG:  cpu time    2.7400: real time    2.7406
  RMM-DIIS:  cpu time    5.0570: real time    5.0576
    ORTHCH:  cpu time    1.0781: real time    1.0782
 BZINTS: Fermi energy: -1.185833;138.000000 electrons
         Band energy:-923.982701;  BLOECHL correction: -0.076722
       DOS:  cpu time    0.0051: real time    0.0051
    CHARGE:  cpu time    0.5040: real time    0.5041
    MIXING:  cpu time    0.0048: real time    0.0048
    --------------------------------------------
      LOOP:  cpu time   19.2757: real time   19.3005

 eigenvalue-minimisations  :  1411
 total energy-change (2. order) : 0.9928148E+01  (-0.6257259E+01)
 number of electron     138.0000005 magnetization 
 augmentation part        4.4736615 magnetization 

 DIPCOR: dipole corrections for dipol
 direction  3 min pos   365,
 dipolmoment           0.000000      0.000000      0.578676 electrons x Angstroem
 Tr[quadrupol]     -1912.002580

 energy correction for charged system         0.000000 eV
 dipol+quadrupol energy correction           -0.011743 eV
 added-field ion interaction         -2.594587 eV  (added to PSCEN)


 Broyden mixing:
  rms(total) = 0.79489E+00    rms(broyden)= 0.79436E+00
  rms(prec ) = 0.10270E+01
  weight for this iteration     100.00

 eigenvalues of (default mixing * dielectric matrix)
  average eigenvalue GAMMA=   0.9423
  0.9423

 Free energy of the ion-electron system (eV)
  ---------------------------------------------------
  alpha Z        PSCENC =        60.55473249
  Ewald energy   TEWEN  =     12947.61092058
  -Hartree energ DENC   =    -16355.46019459
  -exchange      EXHF   =         0.00000000
  -V(xc)+E(xc)   XCENC  =     -2041.18661417
  PAW double counting   =      5558.43566387    -3144.88497624
  entropy T*S    EENTRO =         0.00000000
  eigenvalues    EBANDS =      -923.98270057
  atomic energy  EATOM  =      3827.98814510
  Solvation  Ediel_sol  =         0.00000000
  ---------------------------------------------------
  free energy    TOTEN  =       -70.92502353 eV

  energy without entropy =      -70.92502353  energy(sigma->0) =      -70.92502353


--------------------------------------------------------------------------------------------------------




--------------------------------------- Iteration      1(  14)  ---------------------------------------


    POTLOK:  cpu time    9.7338: real time    9.7544
    SETDIJ:  cpu time    0.1361: real time    0.1361
    EDDIAG:  cpu time    2.7434: real time    2.7440
  RMM-DIIS:  cpu time    5.5749: real time    5.5757
    ORTHCH:  cpu time    1.0681: real time    1.0682
 BZINTS: Fermi energy: -0.882219;138.000000 electrons
         Band energy:***********;  BLOECHL correction: -0.012540
       DOS:  cpu time    0.0055: real time    0.0055
    CHARGE:  cpu time    0.5065: real time    0.5065
    MIXING:  cpu time    0.0041: real time    0.0041
    --------------------------------------------
      LOOP:  cpu time   19.7723: real time   19.7944

 eigenvalue-minimisations  :  1613
 total energy-change (2. order) :-0.2590202E+02  (-0.1367289E+01)
 number of electron     138.0000005 magnetization 
 augmentation part        4.4542331 magnetization 

 DIPCOR: dipole corrections for dipol
 direction  3 min pos   377,
 dipolmoment           0.000000      0.000000     -2.042916 electrons x Angstroem
 Tr[quadrupol]     -1896.728004

 energy correction for charged system         0.000000 eV
 dipol+quadrupol energy correction           -0.146359 eV
 added-field ion interaction         -6.322889 eV  (added to PSCEN)


 Broyden mixing:
  rms(total) = 0.10774E+01    rms(broyden)= 0.10774E+01
  rms(prec ) = 0.31778E+01
  weight for this iteration     100.00

 eigenvalues of (default mixing * dielectric matrix)
  average eigenvalue GAMMA=   0.7283
  0.9556  0.5009

 Free energy of the ion-electron system (eV)
  ---------------------------------------------------
  alpha Z        PSCENC =        56.69181540
  Ewald energy   TEWEN  =     12947.61092058
  -Hartree energ DENC   =    -16300.67019592
  -exchange      EXHF   =         0.00000000
  -V(xc)+E(xc)   XCENC  =     -2039.27009924
  PAW double counting   =      5711.08368460    -3297.54523864
  entropy T*S    EENTRO =         0.00000000
  eigenvalues    EBANDS =     -1002.71607312
  atomic energy  EATOM  =      3827.98814510
  Solvation  Ediel_sol  =         0.00000000
  ---------------------------------------------------
  free energy    TOTEN  =       -96.82704123 eV

  energy without entropy =      -96.82704123  energy(sigma->0) =      -96.82704123


--------------------------------------------------------------------------------------------------------




--------------------------------------- Iteration      1(  15)  ---------------------------------------


    POTLOK:  cpu time    9.7761: real time    9.8006
    SETDIJ:  cpu time    0.1357: real time    0.1359
    EDDIAG:  cpu time    2.7440: real time    2.7446
  RMM-DIIS:  cpu time    5.1735: real time    5.1742
    ORTHCH:  cpu time    1.0744: real time    1.0745
 BZINTS: Fermi energy: -1.244163;138.000000 electrons
         Band energy:-921.758345;  BLOECHL correction: -0.086697
       DOS:  cpu time    0.0058: real time    0.0058
    CHARGE:  cpu time    0.5055: real time    0.5055
    MIXING:  cpu time    0.0051: real time    0.0051
    --------------------------------------------
      LOOP:  cpu time   19.4200: real time   19.4462

 eigenvalue-minimisations  :  1460
 total energy-change (2. order) : 0.2733342E+02  (-0.3223596E+00)
 number of electron     138.0000005 magnetization 
 augmentation part        4.3845231 magnetization 

 DIPCOR: dipole corrections for dipol
 direction  3 min pos   385,
 dipolmoment           0.000000      0.000000      0.130114 electrons x Angstroem
 Tr[quadrupol]     -1909.501668

 energy correction for charged system         0.000000 eV
 dipol+quadrupol energy correction           -0.000594 eV
 added-field ion interaction          1.060100 eV  (added to PSCEN)


 Broyden mixing:
  rms(total) = 0.49806E+00    rms(broyden)= 0.49803E+00
  rms(prec ) = 0.55532E+00
  weight for this iteration     100.00

 eigenvalues of (default mixing * dielectric matrix)
  average eigenvalue GAMMA=   1.1024
  1.9846  1.1742  0.1485

 Free energy of the ion-electron system (eV)
  ---------------------------------------------------
  alpha Z        PSCENC =        64.22056962
  Ewald energy   TEWEN  =     12947.61092058
  -Hartree energ DENC   =    -16362.31695342
  -exchange      EXHF   =         0.00000000
  -V(xc)+E(xc)   XCENC  =     -2038.78710775
  PAW double counting   =      5749.78588720    -3336.23673813
  entropy T*S    EENTRO =         0.00000000
  eigenvalues    EBANDS =      -921.75834473
  atomic energy  EATOM  =      3827.98814510
  Solvation  Ediel_sol  =         0.00000000
  ---------------------------------------------------
  free energy    TOTEN  =       -69.49362152 eV

  energy without entropy =      -69.49362152  energy(sigma->0) =      -69.49362152


--------------------------------------------------------------------------------------------------------




--------------------------------------- Iteration      1(  16)  ---------------------------------------


    POTLOK:  cpu time    9.7400: real time    9.7632
    SETDIJ:  cpu time    0.1357: real time    0.1357
    EDDIAG:  cpu time    2.7444: real time    2.7450
  RMM-DIIS:  cpu time    5.5920: real time    5.5928
    ORTHCH:  cpu time    1.0698: real time    1.0700
 BZINTS: Fermi energy: -0.966995;138.000000 electrons
         Band energy:-901.997380;  BLOECHL correction: -0.083508
       DOS:  cpu time    0.0060: real time    0.0060
    CHARGE:  cpu time    0.5049: real time    0.5050
    MIXING:  cpu time    0.0051: real time    0.0051
    --------------------------------------------
      LOOP:  cpu time   19.7980: real time   19.8228

 eigenvalue-minimisations  :  1588
 total energy-change (2. order) :-0.1431036E-01  (-0.1432847E+00)
 number of electron     138.0000005 magnetization 
 augmentation part        4.4397043 magnetization 

 DIPCOR: dipole corrections for dipol
 direction  3 min pos   370,
 dipolmoment           0.000000      0.000000      0.162567 electrons x Angstroem
 Tr[quadrupol]     -1914.642206

 energy correction for charged system         0.000000 eV
 dipol+quadrupol energy correction           -0.000927 eV
 added-field ion interaction         -0.215543 eV  (added to PSCEN)


 Broyden mixing:
  rms(total) = 0.25398E+00    rms(broyden)= 0.25396E+00
  rms(prec ) = 0.41066E+00
  weight for this iteration     100.00

 eigenvalues of (default mixing * dielectric matrix)
  average eigenvalue GAMMA=   1.0435
  2.3854  0.1528  0.6219  1.0138

 Free energy of the ion-electron system (eV)
  ---------------------------------------------------
  alpha Z        PSCENC =        62.94459308
  Ewald energy   TEWEN  =     12947.61092058
  -Hartree energ DENC   =    -16382.24668875
  -exchange      EXHF   =         0.00000000
  -V(xc)+E(xc)   XCENC  =     -2037.52863633
  PAW double counting   =      5857.78419243    -3444.06307845
  entropy T*S    EENTRO =         0.00000000
  eigenvalues    EBANDS =      -901.99737955
  atomic energy  EATOM  =      3827.98814510
  Solvation  Ediel_sol  =         0.00000000
  ---------------------------------------------------
  free energy    TOTEN  =       -69.50793189 eV

  energy without entropy =      -69.50793189  energy(sigma->0) =      -69.50793189


--------------------------------------------------------------------------------------------------------




--------------------------------------- Iteration      1(  17)  ---------------------------------------


    POTLOK:  cpu time    9.7627: real time    9.7828
    SETDIJ:  cpu time    0.1356: real time    0.1357
    EDDIAG:  cpu time    2.7440: real time    2.7446
  RMM-DIIS:  cpu time    4.7685: real time    4.7692
    ORTHCH:  cpu time    1.0781: real time    1.0783
 BZINTS: Fermi energy: -0.981301;138.000000 electrons
         Band energy:-899.248287;  BLOECHL correction: -0.086375
       DOS:  cpu time    0.0049: real time    0.0049
    CHARGE:  cpu time    0.5087: real time    0.5088
    MIXING:  cpu time    0.0048: real time    0.0048
    --------------------------------------------
      LOOP:  cpu time   19.0074: real time   19.0290

 eigenvalue-minimisations  :  1360
 total energy-change (2. order) : 0.3456658E+00  (-0.4208627E-01)
 number of electron     138.0000005 magnetization 
 augmentation part        4.4524043 magnetization 

 DIPCOR: dipole corrections for dipol
 direction  3 min pos   353,
 dipolmoment           0.000000      0.000000     -0.027597 electrons x Angstroem
 Tr[quadrupol]     -1913.400431

 energy correction for charged system         0.000000 eV
[...]
  0.013  -0.001  -0.001   0.054   0.001   0.000  -0.003  -0.000  -0.000   0.000   0.011  -0.000  -0.000
  0.002   0.000  -0.002   0.001   0.076   0.000  -0.000  -0.004  -0.003  -0.000   0.000   0.004   0.000
  0.000   0.000  -0.004   0.000   0.000   0.000  -0.000  -0.000  -0.000  -0.000   0.000   0.000   0.000
 -0.003   0.000   0.000  -0.003  -0.000  -0.000   0.000   0.000   0.000  -0.000  -0.001   0.000   0.000
 -0.000  -0.000   0.000  -0.000  -0.004  -0.000   0.000   0.000   0.000   0.000  -0.000  -0.000  -0.000
  0.001   0.000   0.000  -0.000  -0.003  -0.000   0.000   0.000   0.004   0.000   0.000  -0.000  -0.000
  0.000  -0.000   0.004   0.000  -0.000  -0.000  -0.000   0.000   0.000   0.002   0.000   0.000  -0.000
 -0.022   0.000  -0.000   0.011   0.000   0.000  -0.001  -0.000   0.000   0.000   0.004  -0.000  -0.000
  0.000   0.000  -0.000  -0.000   0.004   0.000   0.000  -0.000  -0.000   0.000  -0.000   0.002   0.000
 -0.001  -0.000  -0.003  -0.000   0.000   0.000   0.000  -0.000  -0.000  -0.000  -0.000   0.000   0.003


------------------------ aborting loop because EDIFF is reached ----------------------------------------


    CHARGE:  cpu time    0.5451: real time    0.5452
    FORLOC:  cpu time    0.0415: real time    0.0415
    FORNL :  cpu time    1.3652: real time    1.3654
    STRESS:  cpu time    4.0348: real time    4.0353
    FORCOR:  cpu time    7.4605: real time    7.4620
    FORHAR:  cpu time    0.1448: real time    0.1448
    MIXING:  cpu time    0.0107: real time    0.0107
    OFIELD:  cpu time    0.0000: real time    0.0000

  FORCE on cell =-STRESS in cart. coord.  units (eV):
  Direction    XX          YY          ZZ          XY          YZ          ZX
  --------------------------------------------------------------------------------------
  Alpha Z    63.16106    63.16106    63.16106
  Ewald   14522.41174 14354.99623-15929.80690  -276.00489   148.07041   110.92956
  Hartree 15426.08604 15291.17375-14304.98673  -206.71781    45.65434    21.16376
  E(xc)    -445.63897  -445.59919  -444.59496    -0.21886     0.54402     0.51072
  Local  -30912.07150-30610.07663 29271.96891   481.92466  -159.03826   -97.48752
  n-local   119.45478   119.47561   111.94838    -0.21292     0.76761     0.63698
  augment    44.68676    44.66529    45.44289     0.00934    -2.28343    -2.29826
  Kinetic  1172.55763  1173.04276  1187.59072     2.15078   -33.44123   -32.57057
  Fock        0.00000     0.00000     0.00000     0.00000     0.00000     0.00000
  -------------------------------------------------------------------------------------
  Total      -9.35246    -9.16111     0.72337     0.93031     0.27346     0.88469
  in kB      -5.80797    -5.68914     0.44922     0.57773     0.16982     0.54940
  external pressure =       -3.68 kB  Pullay stress =        0.00 kB


 VOLUME and BASIS-vectors are now :
 -----------------------------------------------------------------------------
  energy-cutoff  :      520.00
  volume of cell :     2579.96
      direct lattice vectors                 reciprocal lattice vectors
     9.555752754  0.000000000  0.000000000     0.104649003  0.060419130  0.000000000
    -4.777876377  8.275524637  0.000000000     0.000000000  0.120838260  0.000000000
     0.000000000  0.000000000 32.625095367     0.000000000  0.000000000  0.030651251

  length of vectors
     9.555752754  9.555752754 32.625095367     0.120838260  0.120838260  0.030651251


 FORCES acting on ions
    electron-ion (+dipol)            ewald-force                    non-local-force                 convergence-correction
 -----------------------------------------------------------------------------------------------
   0.832E-01 -.164E-01 0.122E+03   -.131E-01 -.147E-01 -.121E+03   -.490E-01 0.256E-01 -.778E+00   0.357E-05 0.718E-07 0.728E-05
   0.451E+00 0.943E-01 0.564E+02   -.350E+00 -.172E+00 -.564E+02   -.833E-01 0.691E-01 0.738E-01   0.499E-06 0.103E-05 0.828E-04
   -.101E+01 -.354E+00 0.420E+01   0.116E+01 0.353E+00 -.460E+01   -.148E+00 -.438E-03 0.394E+00   0.904E-06 -.159E-05 -.284E-04
   -.488E-01 -.215E-01 0.122E+03   -.149E-01 -.386E-02 -.121E+03   0.201E-01 0.708E-02 -.869E+00   0.290E-06 0.803E-07 0.802E-05
   0.214E+00 0.773E-02 0.566E+02   -.207E+00 -.168E-01 -.567E+02   -.353E-02 0.120E-01 0.750E-01   -.171E-07 -.375E-06 0.826E-04
   -.616E+00 -.304E+01 -.997E+01   0.622E+00 0.302E+01 0.965E+01   -.559E-02 0.173E-01 0.336E+00   -.172E-05 0.160E-05 0.174E-05
   0.289E-01 0.778E-01 0.122E+03   -.143E-01 -.587E-02 -.121E+03   0.101E-01 -.450E-01 -.903E+00   0.234E-05 0.344E-05 0.753E-05
   0.227E+00 0.364E+00 0.561E+02   -.238E+00 -.264E+00 -.563E+02   -.970E-03 -.813E-01 0.145E+00   -.110E-06 -.480E-06 0.816E-04
   -.269E+01 0.189E+01 -.160E+02   0.272E+01 -.162E+01 0.155E+02   -.289E-01 -.245E+00 0.487E+00   -.320E-06 -.135E-05 -.433E-06
   -.450E-01 -.505E-01 0.122E+03   0.806E-02 -.914E-03 -.121E+03   0.227E-01 0.284E-01 -.877E+00   -.126E-05 -.131E-05 0.704E-05
   -.203E+00 -.179E-01 0.566E+02   0.139E+00 -.263E-01 -.568E+02   0.531E-01 0.371E-01 0.143E+00   -.122E-05 0.145E-05 0.816E-04
   -.999E+00 0.226E+00 -.642E+01   0.830E+00 -.353E+00 0.598E+01   0.148E+00 0.120E+00 0.456E+00   0.922E-06 0.145E-05 0.305E-05
   0.531E-02 0.117E-01 0.122E+03   0.924E-02 0.952E-02 -.121E+03   -.150E-01 -.191E-01 -.866E+00   -.643E-07 -.310E-05 0.664E-05
   0.623E-01 -.670E-01 0.572E+02   -.394E-01 0.177E-01 -.572E+02   -.147E-01 0.319E-01 0.222E-01   0.308E-06 -.111E-05 0.823E-04
   0.356E+01 0.654E+01 -.111E+02   -.375E+01 -.728E+01 0.103E+02   0.177E+00 0.733E+00 0.794E+00   0.515E-06 0.397E-06 -.358E-06
   -.484E-01 -.767E-02 0.122E+03   0.883E-02 0.653E-02 -.121E+03   0.242E-01 0.529E-02 -.768E+00   -.251E-05 0.220E-05 0.652E-05
   -.281E-01 -.126E-01 0.569E+02   -.124E-01 0.591E-01 -.569E+02   0.234E-01 -.278E-01 0.496E-02   -.913E-06 -.139E-05 0.814E-04
   0.124E+02 0.739E+00 0.174E+01   -.128E+02 -.628E+00 -.198E+01   0.397E+00 -.116E+00 0.227E+00   -.197E-05 -.143E-05 -.182E-04
   -.414E-03 0.588E-01 0.122E+03   0.509E-02 -.195E-02 -.121E+03   -.834E-02 -.647E-02 -.891E+00   -.232E-05 0.358E-06 0.710E-05
   -.257E+00 0.290E-01 0.564E+02   0.225E+00 -.383E-01 -.565E+02   0.260E-01 -.116E-02 0.121E+00   0.721E-06 0.185E-05 0.826E-04
   0.156E+01 -.839E+00 -.133E+02   -.144E+01 0.880E+00 0.130E+02   -.109E+00 -.229E-01 0.296E+00   -.187E-05 0.204E-05 -.137E-05
   0.684E-01 -.710E-01 0.122E+03   0.583E-02 0.715E-02 -.121E+03   -.281E-01 0.303E-01 -.815E+00   -.216E-06 -.264E-05 0.721E-05
   -.268E+00 -.193E+00 0.564E+02   0.248E+00 0.208E+00 -.565E+02   0.734E-02 -.497E-02 0.675E-01   -.255E-06 -.846E-07 0.833E-04
   -.882E+01 0.679E+01 0.734E+01   0.897E+01 -.702E+01 -.755E+01   -.154E+00 0.233E+00 0.226E+00   0.184E-05 -.182E-05 -.147E-04
   -.490E-01 -.176E-01 0.122E+03   0.557E-02 0.435E-02 -.121E+03   0.262E-01 0.135E-01 -.798E+00   0.167E-06 0.893E-06 0.606E-05
   -.240E+00 -.265E+00 0.562E+02   0.247E+00 0.246E+00 -.563E+02   0.782E-02 0.192E-01 0.374E-01   0.101E-05 -.953E-06 0.830E-04
   -.539E+01 -.125E+02 0.139E+02   0.553E+01 0.127E+02 -.124E+02   -.136E+00 -.191E+00 -.146E+01   0.862E-06 -.729E-06 -.180E-04
   0.140E+00 0.996E-01 0.898E+02   -.971E-01 -.981E-01 -.897E+02   -.401E-01 -.315E-01 -.376E-01   0.356E-06 -.869E-06 0.614E-04
   0.606E+00 0.893E+00 0.240E+02   -.608E+00 -.791E+00 -.241E+02   0.321E-02 -.114E+00 0.154E+00   -.516E-06 -.594E-06 0.630E-04
   0.115E+00 -.254E-01 0.897E+02   -.584E-01 0.172E-01 -.897E+02   -.393E-01 0.184E-01 -.196E-01   -.921E-06 0.906E-06 0.610E-04
   0.498E+00 -.716E-01 0.232E+02   -.498E+00 0.705E-01 -.233E+02   -.678E-03 0.108E-01 0.891E-01   -.117E-05 -.210E-05 0.629E-04
   0.452E-01 0.588E-01 0.897E+02   -.959E-01 -.589E-01 -.897E+02   0.954E-02 0.351E-02 -.814E-01   0.168E-05 0.612E-06 0.590E-04
   0.513E+00 0.182E+00 0.243E+02   -.519E+00 -.243E+00 -.242E+02   -.184E-01 0.624E-01 -.181E-01   -.104E-05 0.113E-05 0.640E-04
   -.220E+00 -.564E-02 0.898E+02   0.170E+00 0.454E-01 -.897E+02   0.465E-01 -.222E-01 -.315E-01   -.435E-06 -.253E-05 0.611E-04
   -.505E+00 0.660E+00 0.248E+02   0.451E+00 -.606E+00 -.250E+02   0.556E-01 -.352E-01 0.151E+00   0.587E-06 0.247E-06 0.637E-04
   -.876E-01 -.160E+00 0.897E+02   0.108E+00 0.157E+00 -.896E+02   -.921E-02 0.195E-01 -.586E-01   -.135E-05 -.104E-05 0.624E-04
   0.594E+00 -.708E+00 0.255E+02   -.495E+00 0.573E+00 -.259E+02   -.960E-01 0.132E+00 0.495E+00   0.120E-05 -.147E-05 0.645E-04
   -.683E-01 -.313E-01 0.897E+02   0.831E-01 0.699E-03 -.897E+02   -.172E-01 -.112E-01 -.160E-01   -.268E-05 0.975E-06 0.592E-04
   0.149E+00 0.362E-01 0.238E+02   -.743E-01 -.443E-01 -.239E+02   -.776E-01 -.412E-02 0.118E+00   -.137E-06 0.200E-05 0.639E-04
   0.118E+00 0.212E-01 0.896E+02   -.945E-01 -.125E-02 -.895E+02   -.366E-01 -.131E-01 -.565E-01   0.528E-07 0.168E-06 0.612E-04
   -.893E-01 -.200E+00 0.245E+02   0.168E+00 0.166E+00 -.245E+02   -.918E-01 0.443E-01 0.120E-02   -.796E-07 0.940E-06 0.644E-04
   0.521E-01 0.299E-01 0.896E+02   -.637E-01 -.134E-01 -.895E+02   -.266E-01 -.194E-01 0.495E-01   0.231E-05 -.116E-06 0.625E-04
   -.121E+01 -.296E+00 0.227E+02   0.117E+01 0.338E+00 -.228E+02   0.355E-01 -.530E-01 0.890E-01   0.833E-07 -.104E-05 0.608E-04
   0.174E-01 0.730E-01 0.896E+02   -.242E-02 -.856E-01 -.895E+02   0.568E-02 -.177E-01 0.213E-01   0.102E-05 0.191E-05 0.614E-04
   -.720E+00 -.651E+00 0.224E+02   0.622E+00 0.638E+00 -.226E+02   0.103E+00 0.169E-01 0.178E+00   0.115E-05 0.784E-06 0.609E-04
   0.981E+01 0.400E+02 -.260E+03   -.209E+02 -.639E+02 0.236E+03   0.111E+02 0.239E+02 0.240E+02   -.117E-04 -.444E-04 -.177E-03
   -.330E+01 0.279E+02 -.419E+03   -.725E+01 -.512E+02 0.455E+03   0.106E+02 0.234E+02 -.356E+02   0.263E-04 -.123E-04 -.147E-03
   0.240E+02 -.130E+01 -.418E+03   -.296E+02 -.244E+02 0.452E+03   0.556E+01 0.257E+02 -.348E+02   -.419E-04 0.400E-04 -.127E-03
   -.287E+01 0.646E+02 -.252E+03   -.150E+02 -.853E+02 0.233E+03   0.179E+02 0.207E+02 0.192E+02   0.743E-05 -.254E-04 -.160E-03
   0.300E+02 -.121E+02 -.277E+03   -.511E+02 -.830E+01 0.266E+03   0.211E+02 0.205E+02 0.111E+02   -.132E-04 -.441E-05 -.176E-03
   0.428E+02 0.464E+02 -.277E+03   -.597E+02 -.723E+02 0.257E+03   0.170E+02 0.259E+02 0.200E+02   -.185E-04 -.386E-04 -.177E-03
   0.348E+02 -.415E+02 -.871E+02   -.396E+02 0.467E+02 0.901E+02   0.479E+01 -.519E+01 -.301E+01   -.818E-05 0.697E-05 -.257E-04
   -.577E+02 -.890E+00 -.968E+02   0.648E+02 0.726E+00 0.101E+03   -.708E+01 0.160E+00 -.378E+01   0.102E-04 -.240E-05 -.254E-04
   -.367E+02 -.697E+02 -.568E+02   0.403E+02 0.770E+02 0.563E+02   -.365E+01 -.727E+01 0.490E+00   -.131E-05 -.937E-05 -.288E-04
   0.108E+02 0.244E+02 0.326E+02   -.121E+02 -.267E+02 -.396E+02   0.125E+01 0.223E+01 0.703E+01   0.471E-05 0.193E-07 -.233E-04
   -.331E+02 -.784E+02 -.550E+02   0.365E+02 0.858E+02 0.545E+02   -.337E+01 -.740E+01 0.514E+00   -.663E-05 -.243E-05 -.288E-04
   0.296E+02 0.143E+02 0.287E+02   -.323E+02 -.159E+02 -.355E+02   0.268E+01 0.157E+01 0.679E+01   -.448E-05 0.423E-05 -.259E-04
   0.181E+02 -.305E+02 -.615E+02   -.208E+02 0.350E+02 0.622E+02   0.267E+01 -.443E+01 -.694E+00   -.958E-06 0.127E-05 -.285E-04
   -.612E+02 0.287E+01 -.109E+03   0.676E+02 -.327E+01 0.114E+03   -.638E+01 0.434E+00 -.511E+01   0.865E-06 -.736E-06 -.303E-04
   -.413E+02 -.534E+02 -.104E+03   0.454E+02 0.588E+02 0.108E+03   -.415E+01 -.537E+01 -.441E+01   -.386E-05 -.767E-05 -.337E-04
   0.388E+01 0.451E+01 -.364E+01   -.383E+01 -.452E+01 0.374E+01   -.462E-01 0.153E-01 -.141E+00   0.105E-06 -.261E-05 -.810E-05
   0.306E+02 -.514E+02 -.963E+02   -.343E+02 0.574E+02 0.100E+03   0.380E+01 -.608E+01 -.384E+01   -.303E-05 0.101E-05 -.286E-04
   -.621E+02 0.493E+01 -.805E+02   0.697E+02 -.567E+01 0.824E+02   -.758E+01 0.723E+00 -.200E+01   0.209E-05 -.199E-05 -.298E-04
 -----------------------------------------------------------------------------------------------
   -.661E+02 -.110E+03 0.827E+01   -.284E-13 0.302E-13 0.284E-13   0.661E+02 0.110E+03 -.829E+01   -.628E-04 -.100E-03 0.565E-03
 
 
 POSITION                                       TOTAL-FORCE (eV/Angst)
 -----------------------------------------------------------------------------------
      0.00000      0.00000      0.00000         0.021168     -0.005447      0.005061
      4.75818      8.26131      5.16260         0.018210     -0.008736      0.003732
      9.53017      0.02624     10.80445         0.009282     -0.001340     -0.000419
     -1.59263      2.75851      0.00000        -0.043512     -0.018080     -0.036152
      7.94986      2.75599      5.13717         0.003138      0.003109     -0.001445
      7.85239      2.73854     10.14189         0.000316     -0.003067      0.018553
     -3.18525      5.51702      0.00000         0.024769      0.027131     -0.018380
      6.34880      5.50460      5.14928        -0.011877      0.019049     -0.001553
      6.31705      5.56937     10.25910         0.004884      0.026390      0.007592
      3.18525      0.00000      0.00000        -0.014131     -0.022858     -0.020584
     -1.60597      8.26113      5.13389        -0.010409     -0.006930      0.000883
     -1.67108      8.25915     10.09363        -0.020946     -0.006146      0.010333
      1.59263      2.75851      0.00000        -0.000306      0.002264     -0.037860
      1.57854      2.73870      5.11749         0.008285     -0.017213     -0.012102
      1.48860      2.67218     10.15671        -0.005562     -0.006378     -0.002594
     -0.00000      5.51702      0.00000        -0.015242      0.004301     -0.029259
     -0.02440      5.51056      5.15450        -0.016927      0.018741     -0.001971
     -0.20140      5.53165     10.75610        -0.012388     -0.005127     -0.007595
      6.37050      0.00000      0.00000        -0.003559      0.050480     -0.043247
      1.58804      8.25349      5.14670        -0.005671     -0.010330     -0.002463
      6.31874      0.03346     10.24390         0.004761      0.017902      0.021523
      4.77788      2.75851      0.00000         0.046269     -0.033419     -0.023007
      4.75815      2.76484      5.17893        -0.011830      0.009885      0.001504
      4.75616      2.64450     10.64388        -0.001398      0.001750      0.014686
      3.18525      5.51702      0.00000        -0.017192      0.000400     -0.037888
      3.19269      5.51354      5.18504         0.014805      0.000323     -0.012046
      3.09190      5.56441     10.74059        -0.002790      0.015150      0.016683
      0.00000      1.83901      2.60418         0.002854     -0.029858      0.018937
     -0.04449      1.80256      7.68692         0.000996     -0.011553      0.004382
     -1.59263      4.59751      2.60418         0.017351      0.010280      0.031213
     -1.59834      4.60957      7.72304        -0.000710      0.009818      0.006135
     -3.18525      7.35602      2.60418        -0.041074      0.003559     -0.048356
     -3.23991      7.33425      7.66024        -0.023487      0.001127      0.019505
      3.18525      1.83901      2.60418        -0.004127      0.017760      0.039625
      3.16363      1.85035      7.68909         0.001734      0.018531     -0.003963
      1.59263      4.59751      2.60418         0.011700      0.016790      0.008004
      1.56714      4.58517      7.64776         0.003127     -0.003668      0.003153
      0.00000      7.35602      2.60418        -0.002319     -0.041672      0.042888
     -0.00013      7.29883      7.71228        -0.002374     -0.012060     -0.004106
      6.37050      1.83901      2.60418        -0.012987      0.006975     -0.016140
      6.31912      1.80994      7.66053        -0.013062      0.009559     -0.005340
      4.77788      4.59751      2.60418        -0.038027     -0.002788      0.076447
      4.70668      4.54207      7.88504        -0.006255     -0.009926     -0.015348
      3.18525      7.35602      2.60418         0.020773     -0.030149      0.051033
      3.19043      7.30708      7.85915         0.004428      0.003929     -0.001371
      9.48275      0.06899     12.92883         0.001866     -0.002845      0.006245
     -1.95798      7.96565     13.50525        -0.002323      0.000427      0.023821
      7.51481      1.98616     13.51087         0.008623     -0.003306      0.028907
      4.32732      2.93004     12.66968        -0.024885      0.021291      0.011533
      3.05544      5.16086     12.69526        -0.065639      0.018463      0.016789
      0.05060      5.62071     12.85152         0.070776     -0.017596     -0.012808
      8.88139      0.75341     13.33000         0.005502     -0.002378     -0.000992
      0.79092      0.07132     13.40397         0.009663     -0.003565     -0.012140
      3.25873      0.56439     13.42269        -0.011827      0.000279     -0.005256
     -2.10977      7.69707     12.55892         0.010753     -0.037254      0.008437
     -1.63973      2.87641     13.42488         0.011905     -0.007945      0.003411
      7.17062      1.80259     12.59336        -0.003422     -0.004244      0.001849
      3.81411      3.84817     12.80863        -0.032650      0.009238      0.003034
      5.08949      2.89771     13.28173        -0.023907      0.030472      0.009488
      3.56226      5.80721     13.22211        -0.021265      0.022995     -0.003477
      1.43513      4.51924     10.64635         0.004353      0.003096     -0.037155
     -0.38384      6.36573     13.32475         0.082663     -0.022591      0.004505
      1.00348      5.55766     13.12148         0.099132     -0.012998     -0.064875
 -----------------------------------------------------------------------------------
    total drift:                               -0.006905     -0.009299     -0.010498


--------------------------------------------------------------------------------------------------------



  FREE ENERGIE OF THE ION-ELECTRON SYSTEM (eV)
  ---------------------------------------------------
  free  energy   TOTEN  =       -69.12555816 eV

  energy  without entropy=      -69.12555816  energy(sigma->0) =      -69.12555816
 


--------------------------------------------------------------------------------------------------------


    POTLOK:  cpu time    8.8763: real time    8.8774


--------------------------------------------------------------------------------------------------------


 stress matrix after NEB project (eV)
     -9.35246      0.93031      0.88469
      0.93031     -9.16111      0.27346
      0.88469      0.27346      0.72337
  FORCES: max atom, RMS     0.119184    0.028542
  FORCE total and by dimension    0.226548    0.099132
  Stress total and by dimension   13.242490    9.352459
     LOOP+:  cpu time  660.0646: real time  662.1593
 vacuum level on the upper side and lower side of the slab         2.473         3.057
    4ORBIT:  cpu time    0.0000: real time    0.0000
 BZINTS: Fermi energy: -0.787556;138.000000 electrons
         Band energy:-877.536794;  BLOECHL correction: -0.088355

 total amount of memory used by VASP MPI-rank0    62232. kBytes
=======================================================================

   base      :      30000. kBytes
   nonlr-proj:       6329. kBytes
   fftplans  :       6459. kBytes
   grid      :      11407. kBytes
   one-center:         24. kBytes
   wavefun   :       8013. kBytes
 
  
  
 General timing and accounting informations for this job:
 ========================================================
  
                  Total CPU time used (sec):      717.604
                            User time (sec):      707.536
                          System time (sec):       10.067
                         Elapsed time (sec):      729.124
  
                   Maximum memory used (kb):      271028.
                   Average memory used (kb):           0.
  
                          Minor page faults:       321824
                          Major page faults:            0
                 Voluntary context switches:        49988
