<?xml version="1.0" encoding="ISO-8859-1"?>
<modeling>
 <generator>
  <i name="program" type="string">vasp </i>
  <i name="version" type="string">5.4.4.18Apr17-6-g9f103f2a35  </i>
  <i name="subversion" type="string">(build Jun 08 2018 12:06:12) complex            parallel </i>
  <i name="platform" type="string">LinuxIFC </i>
  <i name="date" type="string">2019 06 06 </i>
  <i name="time" type="string">07:09:46 </i>
 </generator>
 <incar>
  <i type="string" name="SYSTEM"> Mg_slab_in_a_box</i>
  <i type="string" name="PREC">accurate</i>
  <i type="string" name="ALGO"> V</i>
  <i type="int" name="NELM">   300</i>
  <i type="int" name="NELMIN">     6</i>
  <i name="EDIFF">      0.00000500</i>
  <i name="ENCUT">    520.00000000</i>
  <i type="string" name="LREAL"> AUTO</i>
  <i type="logical" name="LPLANE"> T  </i>
  <i type="int" name="ISMEAR">    -5</i>
  <i type="logical" name="LWAVE"> F  </i>
  <i type="logical" name="LCHARG"> T  </i>
  <i type="logical" name="LVTOT"> T  </i>
  <i type="logical" name="LVHAR"> T  </i>
  <i type="logical" name="LSCALU"> F  </i>
  <i type="logical" name="LASPH"> T  </i>
  <i type="logical" name="LAECHG"> T  </i>
  <v type="int" name="KPOINT_BSE">    -1     0     0     0</v>
  <i type="int" name="NELM">   300</i>
  <i type="string" name="GGA"> BO</i>
  <i name="PARAM1">      0.18333333</i>
  <i name="PARAM2">      0.22000000</i>
  <i type="logical" name="LUSE_VDW"> T  </i>
  <i name="AGGAC">      0.00000000</i>
  <i type="logical" name="LDIPOL"> T  </i>
  <i type="int" name="IDIPOL">     3</i>
  <i type="logical" name="LASPH"> T  </i>
 </incar>
 <structure name="primitive_cell" >
  <crystal>
   <varray name="basis" >
    <v>       9.55575275       0.00000000       0.00000000 </v>
    <v>      -4.77787638       8.27552464       0.00000000 </v>
    <v>       0.00000000       0.00000000      32.62509537 </v>
   </varray>
   <i name="volume">   2579.95558872 </i>
   <varray name="rec_basis" >
    <v>       0.10464900       0.06041913       0.00000000 </v>
    <v>       0.00000000       0.12083826       0.00000000 </v>
    <v>       0.00000000       0.00000000       0.03065125 </v>
   </varray>
  </crystal>
  <varray name="positions" >
   <v>       0.00000000       0.00000000       0.00000000 </v>
   <v>       0.00000002      -0.33333328       0.00000000 </v>
   <v>      -0.33333330      -0.33333328       0.00000000 </v>
   <v>      -0.33333332       0.00000000       0.00000000 </v>
   <v>       0.33333334       0.00000000       0.00000000 </v>
   <v>       0.00000001       0.33333336       0.00000000 </v>
   <v>       0.33333335       0.33333336       0.00000000 </v>
   <v>      -0.22222216      -0.11111106       0.07982145 </v>
   <v>       0.11111116      -0.11111106       0.07982145 </v>
   <v>       0.11111113       0.22222222       0.07982145 </v>
   <v>      -0.22222219      -0.44444439       0.07982145 </v>
   <v>      -0.22222221       0.22222222       0.07982145 </v>
   <v>       0.44444450       0.22222222       0.07982145 </v>
   <v>      -0.00292018      -0.00171795       0.15824017 </v>
   <v>       0.33333336      -0.33333328       0.00000000 </v>
   <v>      -0.33333332       0.33333336       0.00000000 </v>
   <v>       0.44444450      -0.44444439       0.07982145 </v>
   <v>       0.44444451      -0.11111106       0.07982145 </v>
   <v>       0.11111114      -0.44444439       0.07982145 </v>
   <v>       0.33066274       0.33093926       0.15685745 </v>
   <v>       0.33106684      -0.00173976       0.15736023 </v>
   <v>      -0.00154125       0.33302844       0.15746069 </v>
   <v>      -0.00302160      -0.33483425       0.15783178 </v>
   <v>      -0.33514434      -0.00266212       0.15775292 </v>
   <v>      -0.33276527      -0.33375377       0.15892793 </v>
   <v>       0.33038992      -0.33411339       0.15799198 </v>
   <v>      -0.33501535       0.33409806       0.15874075 </v>
   <v>       0.10407612      -0.11374184       0.23479584 </v>
   <v>       0.10425316       0.21781824       0.23561370 </v>
   <v>      -0.22463722      -0.11702487       0.24089283 </v>
   <v>      -0.22935582       0.21870975       0.23480486 </v>
   <v>       0.44286725       0.22359304       0.23568008 </v>
   <v>      -0.23302310      -0.45114407       0.24168631 </v>
   <v>       0.44103177      -0.44593547       0.23441343 </v>
   <v>       0.11124166      -0.44298734       0.23672088 </v>
   <v>       0.44097596      -0.11802186       0.23639114 </v>
   <v>       0.32413327      -0.00197876       0.30938230 </v>
   <v>       0.31723080       0.32290135       0.31131598 </v>
   <v>      -0.01279474       0.33092091       0.31086162 </v>
   <v>      -0.00243042      -0.32700748       0.31445419 </v>
   <v>      -0.33672800       0.00404376       0.31398838 </v>
   <v>      -0.00109128       0.00317084       0.33116994 </v>
   <v>      -0.34023913      -0.32760681       0.32921256 </v>
   <v>       0.42323341      -0.45390328       0.32632407 </v>
   <v>      -0.34249422       0.31955717       0.32624825 </v>
   <v>       0.31314120      -0.33156543       0.32968792 </v>
   <v>       0.24426436      -0.06989980       0.38494652 </v>
   <v>      -0.00347139       0.00833680       0.39628487 </v>
   <v>      -0.14069131       0.21782124       0.38600228 </v>
   <v>      -0.36843667      -0.37637062       0.38912558 </v>
   <v>      -0.02505140       0.09104082       0.40858103 </v>
   <v>       0.08707848       0.00861829       0.41084859 </v>
   <v>      -0.27634703      -0.29826711       0.40527432 </v>
   <v>      -0.36835411       0.46500626       0.39260041 </v>
   <v>      -0.37011978       0.35406059       0.38834152 </v>
   <v>       0.27637679      -0.03744463       0.41395276 </v>
   <v>      -0.09358007       0.24000451       0.41412517 </v>
   <v>       0.37512305       0.06819945       0.41142228 </v>
   <v>       0.00219447       0.34758034       0.41148926 </v>
   <v>       0.44080263      -0.32842144       0.40218986 </v>
   <v>       0.34489359      -0.32080288       0.39391517 </v>
   <v>       0.34444368      -0.23077585       0.40842029 </v>
   <v>      -0.29231292       0.35015436       0.40710154 </v>
  </varray>
 </structure>
 <varray name="primitive_index" >
  <v type="int" >        1 </v>
  <v type="int" >        7 </v>
  <v type="int" >       25 </v>
  <v type="int" >       19 </v>
  <v type="int" >       10 </v>
  <v type="int" >        4 </v>
  <v type="int" >       13 </v>
  <v type="int" >       44 </v>
  <v type="int" >       32 </v>
  <v type="int" >       28 </v>
  <v type="int" >       42 </v>
  <v type="int" >       40 </v>
  <v type="int" >       34 </v>
  <v type="int" >        2 </v>
  <v type="int" >       16 </v>
  <v type="int" >       22 </v>
  <v type="int" >       36 </v>
  <v type="int" >       38 </v>
  <v type="int" >       30 </v>
  <v type="int" >       14 </v>
  <v type="int" >       11 </v>
  <v type="int" >        5 </v>
  <v type="int" >        8 </v>
  <v type="int" >       20 </v>
  <v type="int" >       26 </v>
  <v type="int" >       17 </v>
  <v type="int" >       23 </v>
  <v type="int" >       33 </v>
  <v type="int" >       29 </v>
  <v type="int" >       45 </v>
  <v type="int" >       41 </v>
  <v type="int" >       35 </v>
  <v type="int" >       43 </v>
  <v type="int" >       37 </v>
  <v type="int" >       31 </v>
  <v type="int" >       39 </v>
  <v type="int" >       12 </v>
  <v type="int" >       15 </v>
  <v type="int" >        6 </v>
  <v type="int" >        9 </v>
  <v type="int" >       21 </v>
  <v type="int" >        3 </v>
  <v type="int" >       27 </v>
  <v type="int" >       61 </v>
  <v type="int" >       24 </v>
  <v type="int" >       18 </v>
  <v type="int" >       55 </v>
  <v type="int" >       46 </v>
  <v type="int" >       57 </v>
  <v type="int" >       50 </v>
  <v type="int" >       52 </v>
  <v type="int" >       53 </v>
  <v type="int" >       60 </v>
  <v type="int" >       58 </v>
  <v type="int" >       49 </v>
  <v type="int" >       47 </v>
  <v type="int" >       48 </v>
  <v type="int" >       54 </v>
  <v type="int" >       56 </v>
  <v type="int" >       63 </v>
  <v type="int" >       51 </v>
  <v type="int" >       62 </v>
  <v type="int" >       59 </v>
 </varray>
 <kpoints>
  <generation param="Gamma">
   <v type="int" name="divisions">       3        3        1 </v>
   <v name="usershift">      0.00000000       0.00000000       0.00000000 </v>
   <v name="genvec1">      0.33333333       0.00000000       0.00000000 </v>
   <v name="genvec2">      0.00000000       0.33333333       0.00000000 </v>
   <v name="genvec3">      0.00000000       0.00000000       1.00000000 </v>
   <v name="shift">      0.00000000       0.00000000       0.00000000 </v>
  </generation>
  <varray name="kpointlist" >
   <v>       0.00000000       0.00000000       0.00000000 </v>
   <v>       0.33333333      -0.00000000       0.00000000 </v>
   <v>       0.00000000       0.33333333       0.00000000 </v>
   <v>       0.33333333       0.33333333       0.00000000 </v>
   <v>      -0.33333333       0.33333333       0.00000000 </v>
  </varray>
  <varray name="weights" >
   <v>       0.11111111 </v>
   <v>       0.22222222 </v>
   <v>       0.22222222 </v>
   <v>       0.22222222 </v>
   <v>       0.22222222 </v>
  </varray>
  <varray name="tetrahedronlist"  type="int" >
   <v type="int" >        2        2        3        3        4 </v>
   <v type="int" >        2        1        2        3        3 </v>
   <v type="int" >        2        1        1        2        3 </v>
   <v type="int" >        2        2        3        4        4 </v>
   <v type="int" >        2        2        2        3        4 </v>
   <v type="int" >        2        1        2        2        3 </v>
   <v type="int" >        2        2        4        4        5 </v>
   <v type="int" >        2        2        2        4        4 </v>
   <v type="int" >        4        2        2        2        4 </v>
   <v type="int" >        2        2        4        5        5 </v>
   <v type="int" >        2        2        2        4        5 </v>
   <v type="int" >        2        1        3        5        5 </v>
   <v type="int" >        2        1        2        5        5 </v>
   <v type="int" >        2        1        2        2        5 </v>
   <v type="int" >        2        1        3        3        5 </v>
   <v type="int" >        2        1        1        3        5 </v>
   <v type="int" >        2        1        1        2        5 </v>
   <v type="int" >        2        3        3        4        5 </v>
   <v type="int" >        4        3        3        3        4 </v>
   <v type="int" >        2        3        4        5        5 </v>
   <v type="int" >        2        3        4        4        5 </v>
   <v type="int" >        2        3        3        4        4 </v>
   <v type="int" >        4        4        5        5        5 </v>
   <v type="int" >        2        4        4        5        5 </v>
  </varray>
  <i name="volumeweight">      0.01851852 </i>
 </kpoints>
 <parameters>
  <separator name="general" >
   <i type="string" name="SYSTEM">Mg_slab_in_a_box</i>
   <i type="logical" name="LCOMPAT"> F  </i>
  </separator>
  <separator name="electronic" >
   <i type="string" name="PREC">accura</i>
   <i name="ENMAX">    520.00000000</i>
   <i name="ENAUG">    605.39200000</i>
   <i name="EDIFF">      0.00000500</i>
   <i type="int" name="IALGO">    48</i>
   <i type="int" name="IWAVPR">    10</i>
   <i type="int" name="NBANDS">   102</i>
   <i name="NELECT">    138.00000000</i>
   <i type="int" name="TURBO">     0</i>
   <i type="int" name="IRESTART">     0</i>
   <i type="int" name="NREBOOT">     0</i>
   <i type="int" name="NMIN">     0</i>
   <i name="EREF">      0.00000000</i>
   <separator name="electronic smearing" >
    <i type="int" name="ISMEAR">    -5</i>
    <i name="SIGMA">      0.20000000</i>
    <i name="KSPACING">      0.50000000</i>
    <i type="logical" name="KGAMMA"> T  </i>
   </separator>
   <separator name="electronic projectors" >
    <i type="logical" name="LREAL"> T  </i>
    <v name="ROPT">     -0.00025000     -0.00025000     -0.00025000</v>
    <i type="int" name="LMAXPAW">  -100</i>
    <i type="int" name="LMAXMIX">     2</i>
    <i type="logical" name="NLSPLINE"> F  </i>
   </separator>
   <separator name="electronic startup" >
    <i type="int" name="ISTART">     0</i>
    <i type="int" name="ICHARG">     2</i>
    <i type="int" name="INIWAV">     1</i>
   </separator>
   <separator name="electronic spin" >
    <i type="int" name="ISPIN">     1</i>
    <i type="logical" name="LNONCOLLINEAR"> F  </i>
    <v name="MAGMOM">      1.00000000      1.00000000      1.00000000      1.00000000      1.00000000      1.00000000      1.00000000      1.00000000      1.00000000      1.00000000      1.00000000      1.00000000      1.00000000      1.00000000      1.00000000      1.00000000      1.00000000      1.00000000      1.00000000      1.00000000
      1.00000000      1.00000000      1.00000000      1.00000000      1.00000000      1.00000000      1.00000000      1.00000000      1.00000000      1.00000000      1.00000000      1.00000000      1.00000000      1.00000000      1.00000000      1.00000000      1.00000000      1.00000000      1.00000000      1.00000000
      1.00000000      1.00000000      1.00000000      1.00000000      1.00000000      1.00000000      1.00000000      1.00000000      1.00000000      1.00000000      1.00000000      1.00000000      1.00000000      1.00000000      1.00000000      1.00000000      1.00000000      1.00000000      1.00000000      1.00000000
      1.00000000      1.00000000      1.00000000</v>
    <i name="NUPDOWN">     -1.00000000</i>
    <i type="logical" name="LSORBIT"> F  </i>
    <v name="SAXIS">      0.00000000      0.00000000      1.00000000</v>
    <i type="logical" name="LSPIRAL"> F  </i>
    <v name="QSPIRAL">      0.00000000      0.00000000      0.00000000</v>
    <i type="logical" name="LZEROZ"> F  </i>
   </separator>
   <separator name="electronic exchange-correlation" >
    <i type="logical" name="LASPH"> T  </i>
    <i type="logical" name="LMETAGGA"> F  </i>
   </separator>
   <separator name="electronic convergence" >
    <i type="int" name="NELM">   300</i>
    <i type="int" name="NELMDL">   -12</i>
    <i type="int" name="NELMIN">     6</i>
    <i name="ENINI">    520.00000000</i>
    <separator name="electronic convergence detail" >
     <i type="logical" name="LDIAG"> T  </i>
     <i type="logical" name="LSUBROT"> F  </i>
     <i name="WEIMIN">      0.00000000</i>
     <i name="EBREAK">      0.00000001</i>
     <i name="DEPER">      0.30000000</i>
     <i type="int" name="NRMM">     4</i>
     <i name="TIME">      0.40000000</i>
    </separator>
   </separator>
   <separator name="electronic mixer" >
    <i name="AMIX">      0.40000000</i>
    <i name="BMIX">      1.00000000</i>
    <i name="AMIN">      0.10000000</i>
    <i name="AMIX_MAG">      1.60000000</i>
    <i name="BMIX_MAG">      1.00000000</i>
    <separator name="electronic mixer details" >
     <i type="int" name="IMIX">     4</i>
     <i type="logical" name="MIXFIRST"> F  </i>
     <i type="int" name="MAXMIX">   -45</i>
     <i name="WC">    100.00000000</i>
     <i type="int" name="INIMIX">     1</i>
     <i type="int" name="MIXPRE">     1</i>
     <i type="int" name="MREMOVE">     5</i>
    </separator>
   </separator>
   <separator name="electronic dipolcorrection" >
    <i type="logical" name="LDIPOL"> T  </i>
    <i type="logical" name="LMONO"> F  </i>
    <i type="int" name="IDIPOL">     3</i>
    <i name="EPSILON">      1.00000000</i>
    <v name="DIPOL">   -100.00000000   -100.00000000   -100.00000000</v>
    <i name="EFIELD">      0.00000000</i>
   </separator>
  </separator>
  <separator name="grids" >
   <i type="int" name="NGX">    72</i>
   <i type="int" name="NGY">    72</i>
   <i type="int" name="NGZ">   250</i>
   <i type="int" name="NGXF">   144</i>
   <i type="int" name="NGYF">   144</i>
   <i type="int" name="NGZF">   500</i>
   <i type="logical" name="ADDGRID"> F  </i>
  </separator>
  <separator name="ionic" >
   <i type="int" name="NSW">     0</i>
   <i type="int" name="IBRION">    -1</i>
   <i type="int" name="MDALGO">     0</i>
   <i type="int" name="ISIF">     2</i>
   <i name="PSTRESS">      0.00000000</i>
   <i name="EDIFFG">      0.00005000</i>
   <i type="int" name="NFREE">     0</i>
   <i name="POTIM">      0.50000000</i>
   <i name="SMASS">     -3.00000000</i>
   <i name="SCALEE">      1.00000000</i>
  </separator>
  <separator name="ionic md" >
   <i name="TEBEG">      0.00010000</i>
   <i name="TEEND">      0.00010000</i>
   <i type="int" name="NBLOCK">     1</i>
   <i type="int" name="KBLOCK">     1</i>
   <i type="int" name="NPACO">   256</i>
   <i name="APACO">     16.00000000</i>
  </separator>
  <separator name="symmetry" >
   <i type="int" name="ISYM">     2</i>
   <i name="SYMPREC">      0.00001000</i>
  </separator>
  <separator name="dos" >
   <i type="int" name="LORBIT">     0</i>
   <v name="RWIGS">     -1.00000000     -1.00000000     -1.00000000</v>
   <i type="int" name="NEDOS">   301</i>
   <i name="EMIN">     10.00000000</i>
   <i name="EMAX">    -10.00000000</i>
   <i name="EFERMI">      0.00000000</i>
  </separator>
  <separator name="writing" >
   <i type="int" name="NWRITE">     2</i>
   <i type="logical" name="LWAVE"> F  </i>
   <i type="logical" name="LDOWNSAMPLE"> F  </i>
   <i type="logical" name="LCHARG"> T  </i>
   <i type="logical" name="LPARD"> F  </i>
   <i type="logical" name="LVTOT"> F  </i>
   <i type="logical" name="LVHAR"> T  </i>
   <i type="logical" name="LELF"> F  </i>
   <i type="logical" name="LOPTICS"> F  </i>
   <v name="STM">      0.00000000      0.00000000      0.00000000      0.00000000      0.00000000      0.00000000      0.00000000</v>
  </separator>
  <separator name="performance" >
   <i type="int" name="NPAR">     3</i>
   <i type="int" name="NSIM">     4</i>
   <i type="int" name="NBLK">    -1</i>
   <i type="logical" name="LPLANE"> T  </i>
   <i type="logical" name="LSCALAPACK"> T  </i>
   <i type="logical" name="LSCAAWARE"> F  </i>
   <i type="logical" name="LSCALU"> F  </i>
   <i type="logical" name="LASYNC"> F  </i>
   <i type="logical" name="LORBITALREAL"> F  </i>
  </separator>
  <separator name="miscellaneous" >
   <i type="int" name="IDIOT">     3</i>
   <i type="int" name="ISPECIAL">     0</i>
   <i type="logical" name="LMUSIC"> F  </i>
   <v name="POMASS">     24.30500000     16.00000000      1.00000000</v>
   <v name="DARWINR">      0.00000000      0.00000000      0.00000000</v>
   <v name="DARWINV">      1.00000000      1.00000000      1.00000000</v>
   <i type="logical" name="LCORR"> T  </i>
  </separator>
  <i type="logical" name="GGA_COMPAT"> T  </i>
  <i type="logical" name="LBERRY"> F  </i>
  <i type="int" name="ICORELEVEL">     0</i>
  <i type="logical" name="LDAU"> F  </i>
  <i type="int" name="I_CONSTRAINED_M">     0</i>
  <separator name="electronic exchange-correlation" >
   <i type="string" name="GGA">BO</i>
   <i type="int" name="VOSKOWN">     0</i>
   <i type="logical" name="LHFCALC"> F  </i>
   <i type="string" name="PRECFOCK"></i>
   <i type="logical" name="LSYMGRAD"> F  </i>
   <i type="logical" name="LHFONE"> F  </i>
   <i type="logical" name="LRHFCALC"> F  </i>
   <i type="logical" name="LTHOMAS"> F  </i>
   <i type="logical" name="LMODELHF"> F  </i>
   <i name="ENCUT4O">     -1.00000000</i>
   <i type="int" name="EXXOEP">     0</i>
   <i type="int" name="FOURORBIT">     0</i>
   <i name="AEXX">      0.00000000</i>
   <i name="HFALPHA">      0.00000000</i>
   <i name="MCALPHA">      0.00000000</i>
   <i name="ALDAX">      1.00000000</i>
   <i name="AGGAX">      1.00000000</i>
   <i name="ALDAC">      1.00000000</i>
   <i name="AGGAC">      0.00000000</i>
   <i type="int" name="NKREDX">     1</i>
   <i type="int" name="NKREDY">     1</i>
   <i type="int" name="NKREDZ">     1</i>
   <i type="logical" name="SHIFTRED"> F  </i>
   <i type="logical" name="ODDONLY"> F  </i>
   <i type="logical" name="EVENONLY"> F  </i>
   <i type="int" name="LMAXFOCK">     0</i>
   <i type="int" name="NMAXFOCKAE">     0</i>
   <i type="logical" name="LFOCKAEDFT"> F  </i>
   <i name="HFSCREEN">      0.00000000</i>
   <i name="HFSCREENC">      0.00000000</i>
   <i type="int" name="NBANDSGWLOW">     0</i>
  </separator>
  <separator name="vdW DFT" >
   <i type="logical" name="LUSE_VDW"> T  </i>
   <i name="Zab_VDW">     -0.84910000</i>
   <i name="PARAM1">      0.18333333</i>
   <i name="PARAM2">      0.22000000</i>
   <i name="PARAM3">      0.00000000</i>
  </separator>
  <separator name="model GW" >
   <i type="int" name="MODEL_GW">     0</i>
   <i name="MODEL_EPS0">     24.57100561</i>
   <i name="MODEL_ALPHA">      1.00000000</i>
  </separator>
  <separator name="linear response parameters" >
   <i type="logical" name="LEPSILON"> F  </i>
   <i type="logical" name="LRPA"> F  </i>
   <i type="logical" name="LNABLA"> F  </i>
   <i type="logical" name="LVEL"> F  </i>
   <i type="int" name="KINTER">     0</i>
   <i name="CSHIFT">      0.10000000</i>
   <i name="OMEGAMAX">     -1.00000000</i>
   <i name="DEG_THRESHOLD">      0.00200000</i>
   <i name="RTIME">     -0.10000000</i>
   <i name="WPLASMAI">      0.00000000</i>
   <v name="DFIELD">      0.00000000      0.00000000      0.00000000</v>
   <v name="WPLASMA">      0.00000000      0.00000000      0.00000000      0.00000000      0.00000000      0.00000000      0.00000000      0.00000000      0.00000000</v>
  </separator>
  <separator name="orbital magnetization" >
   <i type="logical" name="NUCIND"> F  </i>
   <v name="MAGPOS">      0.00000000      0.00000000      0.00000000</v>
   <i type="logical" name="LNICSALL"> T  </i>
   <i type="logical" name="ORBITALMAG"> F  </i>
   <i type="logical" name="LMAGBLOCH"> F  </i>
   <i type="logical" name="LCHIMAG"> F  </i>
   <i type="logical" name="LGAUGE"> T  </i>
   <i type="int" name="MAGATOM">     0</i>
   <v name="MAGDIPOL">      0.00000000      0.00000000      0.00000000</v>
   <v name="AVECCONST">      0.00000000      0.00000000      0.00000000</v>
  </separator>
  <separator name="response functions" >
   <i type="logical" name="LADDER"> F  </i>
   <i type="logical" name="LRPAFORCE"> F  </i>
   <i type="logical" name="LFXC"> F  </i>
   <i type="logical" name="LHARTREE"> T  </i>
   <i type="int" name="IBSE">     0</i>
   <v type="int" name="KPOINT">    -1     0     0     0</v>
   <i type="logical" name="LTCTE"> F  </i>
   <i type="logical" name="LTETE"> F  </i>
   <i type="logical" name="LTRIPLET"> F  </i>
   <i type="logical" name="LFXCEPS"> F  </i>
   <i type="logical" name="LFXHEG"> F  </i>
   <i type="int" name="NATURALO">     2</i>
   <i type="logical" name="L2ORDER"> F  </i>
   <i type="logical" name="LMP2LT"> F  </i>
   <i type="logical" name="LUSEW"> F  </i>
   <i name="ENCUTGW">     -2.00000000</i>
   <i name="ENCUTGWSOFT">     -2.00000000</i>
   <i name="ENCUTLF">     -1.00000000</i>
   <i type="int" name="LMAXMP2">    -1</i>
   <i name="SCISSOR">      0.00000000</i>
   <i type="int" name="NOMEGA">     0</i>
   <i type="int" name="NOMEGAR">     0</i>
   <i type="int" name="NBANDSGW">    -1</i>
   <i type="int" name="NBANDSO">    -1</i>
   <i type="int" name="NBANDSV">    -1</i>
   <i type="int" name="NELM">   300</i>
   <i type="int" name="NELMHF">     1</i>
   <i type="int" name="DIM">     3</i>
   <i type="int" name="ANTIRES">     0</i>
   <i name="OMEGAMAX">    -30.00000000</i>
   <i name="OMEGAMIN">    -30.00000000</i>
   <i name="OMEGATL">   -200.00000000</i>
   <i type="int" name="OMEGAGRID">   140</i>
   <i name="CSHIFT">     -0.10000000</i>
   <i type="logical" name="SELFENERGY"> F  </i>
   <i type="logical" name="LSPECTRAL"> F  </i>
   <i type="logical" name="LSPECTRALGW"> F  </i>
   <i type="logical" name="LSINGLES"> F  </i>
   <i type="logical" name="LFERMIGW"> F  </i>
   <i type="logical" name="ODDONLYGW"> F  </i>
   <i type="logical" name="EVENONLYGW"> F  </i>
   <i type="int" name="NKREDLFX">     1</i>
   <i type="int" name="NKREDLFY">     1</i>
   <i type="int" name="NKREDLFZ">     1</i>
   <i type="int" name="MAXMEM">  2800</i>
   <i type="int" name="TELESCOPE">     0</i>
   <i type="int" name="TAUPAR">     1</i>
   <i type="int" name="OMEGAPAR">    -1</i>
   <i name="LAMBDA">      1.00000000</i>
  </separator>
  <separator name="External order field" >
   <i name="OFIELD_KAPPA">      0.00000000</i>
   <v name="OFIELD_K">      0.00000000      0.00000000      0.00000000</v>
   <i name="OFIELD_Q6_NEAR">      0.00000000</i>
   <i name="OFIELD_Q6_FAR">      0.00000000</i>
   <i name="OFIELD_A">      0.00000000</i>
  </separator>
 </parameters>
 <atominfo>
  <atoms>      63 </atoms>
  <types>       3 </types>
  <array name="atoms" >
   <dimension dim="1">ion</dimension>
   <field type="string">element</field>
   <field type="int">atomtype</field>
   <set>
    <rc><c>Mg</c><c>   1</c></rc>
    <rc><c>Mg</c><c>   1</c></rc>
    <rc><c>Mg</c><c>   1</c></rc>
    <rc><c>Mg</c><c>   1</c></rc>
    <rc><c>Mg</c><c>   1</c></rc>
    <rc><c>Mg</c><c>   1</c></rc>
    <rc><c>Mg</c><c>   1</c></rc>
    <rc><c>Mg</c><c>   1</c></rc>
    <rc><c>Mg</c><c>   1</c></rc>
    <rc><c>Mg</c><c>   1</c></rc>
    <rc><c>Mg</c><c>   1</c></rc>
    <rc><c>Mg</c><c>   1</c></rc>
    <rc><c>Mg</c><c>   1</c></rc>
    <rc><c>Mg</c><c>   1</c></rc>
    <rc><c>Mg</c><c>   1</c></rc>
    <rc><c>Mg</c><c>   1</c></rc>
    <rc><c>Mg</c><c>   1</c></rc>
    <rc><c>Mg</c><c>   1</c></rc>
    <rc><c>Mg</c><c>   1</c></rc>
    <rc><c>Mg</c><c>   1</c></rc>
    <rc><c>Mg</c><c>   1</c></rc>
    <rc><c>Mg</c><c>   1</c></rc>
    <rc><c>Mg</c><c>   1</c></rc>
    <rc><c>Mg</c><c>   1</c></rc>
    <rc><c>Mg</c><c>   1</c></rc>
    <rc><c>Mg</c><c>   1</c></rc>
    <rc><c>Mg</c><c>   1</c></rc>
    <rc><c>Mg</c><c>   1</c></rc>
    <rc><c>Mg</c><c>   1</c></rc>
    <rc><c>Mg</c><c>   1</c></rc>
    <rc><c>Mg</c><c>   1</c></rc>
    <rc><c>Mg</c><c>   1</c></rc>
    <rc><c>Mg</c><c>   1</c></rc>
    <rc><c>Mg</c><c>   1</c></rc>
    <rc><c>Mg</c><c>   1</c></rc>
    <rc><c>Mg</c><c>   1</c></rc>
    <rc><c>Mg</c><c>   1</c></rc>
    <rc><c>Mg</c><c>   1</c></rc>
    <rc><c>Mg</c><c>   1</c></rc>
    <rc><c>Mg</c><c>   1</c></rc>
    <rc><c>Mg</c><c>   1</c></rc>
    <rc><c>Mg</c><c>   1</c></rc>
    <rc><c>Mg</c><c>   1</c></rc>
    <rc><c>Mg</c><c>   1</c></rc>
    <rc><c>Mg</c><c>   1</c></rc>
    <rc><c>O </c><c>   2</c></rc>
    <rc><c>O </c><c>   2</c></rc>
    <rc><c>O </c><c>   2</c></rc>
    <rc><c>O </c><c>   2</c></rc>
    <rc><c>O </c><c>   2</c></rc>
    <rc><c>O </c><c>   2</c></rc>
    <rc><c>H </c><c>   3</c></rc>
    <rc><c>H </c><c>   3</c></rc>
    <rc><c>H </c><c>   3</c></rc>
    <rc><c>H </c><c>   3</c></rc>
    <rc><c>H </c><c>   3</c></rc>
    <rc><c>H </c><c>   3</c></rc>
    <rc><c>H </c><c>   3</c></rc>
    <rc><c>H </c><c>   3</c></rc>
    <rc><c>H </c><c>   3</c></rc>
    <rc><c>H </c><c>   3</c></rc>
    <rc><c>H </c><c>   3</c></rc>
    <rc><c>H </c><c>   3</c></rc>
   </set>
  </array>
  <array name="atomtypes" >
   <dimension dim="1">type</dimension>
   <field type="int">atomspertype</field>
   <field type="string">element</field>
   <field>mass</field>
   <field>valence</field>
   <field type="string">pseudopotential</field>
   <set>
    <rc><c>  45</c><c>Mg</c><c>     24.30500000</c><c>      2.00000000</c><c>  PAW_PBE Mg 13Apr2007                  </c></rc>
    <rc><c>   6</c><c>O </c><c>     16.00000000</c><c>      6.00000000</c><c>  PAW_PBE O 08Apr2002                   </c></rc>
    <rc><c>  12</c><c>H </c><c>      1.00000000</c><c>      1.00000000</c><c>  PAW_PBE H 15Jun2001                   </c></rc>
   </set>
  </array>
 </atominfo>
 <structure name="initialpos" >
  <crystal>
   <varray name="basis" >
    <v>       9.55575275       0.00000000       0.00000000 </v>
    <v>      -4.77787638       8.27552464       0.00000000 </v>
    <v>       0.00000000       0.00000000      32.62509537 </v>
   </varray>
   <i name="volume">   2579.95558872 </i>
   <varray name="rec_basis" >
    <v>       0.10464900       0.06041913       0.00000000 </v>
    <v>       0.00000000       0.12083826       0.00000000 </v>
    <v>       0.00000000       0.00000000       0.03065125 </v>
   </varray>
  </crystal>
  <varray name="positions" >
   <v>       0.00000000       0.00000000       0.00000000 </v>
   <v>       0.99707982       0.99828205       0.15824017 </v>
   <v>       0.99890872       0.00317084       0.33116994 </v>
   <v>       0.00000001       0.33333336       0.00000000 </v>
   <v>       0.99845875       0.33302844       0.15746069 </v>
   <v>       0.98720526       0.33092091       0.31086162 </v>
   <v>       0.00000002       0.66666672       0.00000000 </v>
   <v>       0.99697840       0.66516575       0.15783178 </v>
   <v>       0.99756958       0.67299252       0.31445419 </v>
   <v>       0.33333334       0.00000000       0.00000000 </v>
   <v>       0.33106684       0.99826024       0.15736023 </v>
   <v>       0.32413327       0.99802124       0.30938230 </v>
   <v>       0.33333335       0.33333336       0.00000000 </v>
   <v>       0.33066274       0.33093926       0.15685745 </v>
   <v>       0.31723080       0.32290135       0.31131598 </v>
   <v>       0.33333336       0.66666672       0.00000000 </v>
   <v>       0.33038992       0.66588661       0.15799198 </v>
   <v>       0.31314120       0.66843457       0.32968792 </v>
   <v>       0.66666668       0.00000000       0.00000000 </v>
   <v>       0.66485566       0.99733788       0.15775292 </v>
   <v>       0.66327200       0.00404376       0.31398838 </v>
   <v>       0.66666668       0.33333336       0.00000000 </v>
   <v>       0.66498465       0.33409806       0.15874075 </v>
   <v>       0.65750578       0.31955717       0.32624825 </v>
   <v>       0.66666670       0.66666672       0.00000000 </v>
   <v>       0.66723473       0.66624623       0.15892793 </v>
   <v>       0.65976087       0.67239319       0.32921256 </v>
   <v>       0.11111113       0.22222222       0.07982145 </v>
   <v>       0.10425316       0.21781824       0.23561370 </v>
   <v>       0.11111114       0.55555561       0.07982145 </v>
   <v>       0.11124166       0.55701266       0.23672088 </v>
   <v>       0.11111116       0.88888894       0.07982145 </v>
   <v>       0.10407612       0.88625816       0.23479584 </v>
   <v>       0.44444450       0.22222222       0.07982145 </v>
   <v>       0.44286725       0.22359304       0.23568008 </v>
   <v>       0.44444450       0.55555561       0.07982145 </v>
   <v>       0.44103177       0.55406453       0.23441343 </v>
   <v>       0.44444451       0.88888894       0.07982145 </v>
   <v>       0.44097596       0.88197814       0.23639114 </v>
   <v>       0.77777779       0.22222222       0.07982145 </v>
   <v>       0.77064418       0.21870975       0.23480486 </v>
   <v>       0.77777781       0.55555561       0.07982145 </v>
   <v>       0.76697690       0.54885593       0.24168631 </v>
   <v>       0.77777784       0.88888894       0.07982145 </v>
   <v>       0.77536278       0.88297513       0.24089283 </v>
   <v>       0.99652861       0.00833680       0.39628487 </v>
   <v>       0.27637679       0.96255537       0.41395276 </v>
   <v>       0.90641993       0.24000451       0.41412517 </v>
   <v>       0.62988022       0.35406059       0.38834152 </v>
   <v>       0.63156333       0.62362938       0.38912558 </v>
   <v>       0.34489359       0.67919712       0.39391517 </v>
   <v>       0.97494860       0.09104082       0.40858103 </v>
   <v>       0.08707848       0.00861829       0.41084859 </v>
   <v>       0.37512305       0.06819945       0.41142228 </v>
   <v>       0.24426436       0.93010020       0.38494652 </v>
   <v>       0.00219447       0.34758034       0.41148926 </v>
   <v>       0.85930869       0.21782124       0.38600228 </v>
   <v>       0.63164589       0.46500626       0.39260041 </v>
   <v>       0.70768708       0.35015436       0.40710154 </v>
   <v>       0.72365297       0.70173289       0.40527432 </v>
   <v>       0.42323341       0.54609672       0.32632407 </v>
   <v>       0.34444368       0.76922415       0.40842029 </v>
   <v>       0.44080263       0.67157856       0.40218986 </v>
  </varray>
  <varray name="selective"  type="logical" >
   <v type="logical" >  F  F  F </v>
   <v type="logical" >  T  T  T </v>
   <v type="logical" >  T  T  T </v>
   <v type="logical" >  F  F  F </v>
   <v type="logical" >  T  T  T </v>
   <v type="logical" >  T  T  T </v>
   <v type="logical" >  F  F  F </v>
   <v type="logical" >  T  T  T </v>
   <v type="logical" >  T  T  T </v>
   <v type="logical" >  F  F  F </v>
   <v type="logical" >  T  T  T </v>
   <v type="logical" >  T  T  T </v>
   <v type="logical" >  F  F  F </v>
   <v type="logical" >  T  T  T </v>
   <v type="logical" >  T  T  T </v>
   <v type="logical" >  F  F  F </v>
   <v type="logical" >  T  T  T </v>
   <v type="logical" >  T  T  T </v>
   <v type="logical" >  F  F  F </v>
   <v type="logical" >  T  T  T </v>
   <v type="logical" >  T  T  T </v>
   <v type="logical" >  F  F  F </v>
   <v type="logical" >  T  T  T </v>
   <v type="logical" >  T  T  T </v>
   <v type="logical" >  F  F  F </v>
   <v type="logical" >  T  T  T </v>
   <v type="logical" >  T  T  T </v>
   <v type="logical" >  F  F  F </v>
   <v type="logical" >  T  T  T </v>
   <v type="logical" >  F  F  F </v>
   <v type="logical" >  T  T  T </v>
   <v type="logical" >  F  F  F </v>
   <v type="logical" >  T  T  T </v>
   <v type="logical" >  F  F  F </v>
   <v type="logical" >  T  T  T </v>
   <v type="logical" >  F  F  F </v>
   <v type="logical" >  T  T  T </v>
   <v type="logical" >  F  F  F </v>
   <v type="logical" >  T  T  T </v>
   <v type="logical" >  F  F  F </v>
   <v type="logical" >  T  T  T </v>
   <v type="logical" >  F  F  F </v>
   <v type="logical" >  T  T  T </v>
   <v type="logical" >  F  F  F </v>
   <v type="logical" >  T  T  T </v>
   <v type="logical" >  T  T  T </v>
   <v type="logical" >  T  T  T </v>
   <v type="logical" >  T  T  T </v>
   <v type="logical" >  T  T  T </v>
   <v type="logical" >  T  T  T </v>
   <v type="logical" >  T  T  T </v>
   <v type="logical" >  T  T  T </v>
   <v type="logical" >  T  T  T </v>
   <v type="logical" >  T  T  T </v>
   <v type="logical" >  T  T  T </v>
   <v type="logical" >  T  T  T </v>
   <v type="logical" >  T  T  T </v>
   <v type="logical" >  T  T  T </v>
   <v type="logical" >  T  T  T </v>
   <v type="logical" >  T  T  T </v>
   <v type="logical" >  T  T  T </v>
   <v type="logical" >  T  T  T </v>
   <v type="logical" >  T  T  T </v>
  </varray>
  <nose>
   <v>      -3.00000000       0.00000000       0.00010000       0.00010000 </v>
  </nose>
 </structure>
 <calculation>
  <scstep>
   <time name="diag">    2.78    2.78</time>
   <time name="diis">    2.22    2.22</time>
   <time name="orth">    1.07    1.07</time>
   <time name="total">   18.02   18.64</time>
   <dipole>
    <v name="dipole">      0.00000000       0.00000000      -0.00031019 </v>
    <i name="Tr[quadrupol]">  -1900.55661200 </i>
    <i name="Echarged">      0.00000000 </i>
    <i name="Edipol_quadrupol">      0.00000000 </i>
    <i name="Eion">      0.00000000 </i>
   </dipole>
   <energy>
    <i name="alphaZ">     63.16245394 </i>
    <i name="ewald">  12947.61092058 </i>
    <i name="hartreedc"> -16175.23523683 </i>
    <i name="XCdc">  -2051.20305552 </i>
    <i name="pawpsdc">   5135.15659847 </i>
    <i name="pawaedc">  -2719.01140655 </i>
    <i name="eentropy">      0.00000000 </i>
    <i name="bandstr">    214.00834971 </i>
    <i name="atom">   3827.98814510 </i>
    <i name="e_fr_energy">   1242.47676891 </i>
    <i name="e_wo_entrp">   1242.47676891 </i>
    <i name="e_0_energy">   1242.47676891 </i>
   </energy>
  </scstep>
  <scstep>
   <time name="diag">    2.75    2.77</time>
   <time name="diis">    2.21    2.21</time>
   <time name="orth">    1.07    1.07</time>
   <time name="total">    6.03    6.05</time>
   <dipole>
    <v name="dipole">      0.00000000       0.00000000      -0.00031019 </v>
    <i name="Tr[quadrupol]">  -1900.55661200 </i>
    <i name="Echarged">      0.00000000 </i>
    <i name="Edipol_quadrupol">      0.00000000 </i>
    <i name="Eion">      0.00000000 </i>
   </dipole>
   <energy>
    <i name="e_fr_energy">    545.06753879 </i>
    <i name="e_wo_entrp">    545.06753879 </i>
    <i name="e_0_energy">    545.06753879 </i>
   </energy>
  </scstep>
  <scstep>
   <time name="diag">    2.75    2.77</time>
   <time name="diis">    2.49    2.49</time>
   <time name="orth">    1.28    1.28</time>
   <time name="total">    6.53    6.56</time>
   <dipole>
    <v name="dipole">      0.00000000       0.00000000      -0.00031019 </v>
    <i name="Tr[quadrupol]">  -1900.55661200 </i>
    <i name="Echarged">      0.00000000 </i>
    <i name="Edipol_quadrupol">      0.00000000 </i>
    <i name="Eion">      0.00000000 </i>
   </dipole>
   <energy>
    <i name="e_fr_energy">    310.12187376 </i>
    <i name="e_wo_entrp">    310.12187376 </i>
    <i name="e_0_energy">    310.12187376 </i>
   </energy>
  </scstep>
  <scstep>
   <time name="diag">    2.92    2.94</time>
   <time name="diis">    2.21    2.21</time>
   <time name="orth">    1.07    1.07</time>
   <time name="total">    6.21    6.23</time>
   <dipole>
    <v name="dipole">      0.00000000       0.00000000      -0.00031019 </v>
    <i name="Tr[quadrupol]">  -1900.55661200 </i>
    <i name="Echarged">      0.00000000 </i>
    <i name="Edipol_quadrupol">      0.00000000 </i>
    <i name="Eion">      0.00000000 </i>
   </dipole>
   <energy>
    <i name="e_fr_energy">    138.66931974 </i>
    <i name="e_wo_entrp">    138.66931974 </i>
    <i name="e_0_energy">    138.66931974 </i>
   </energy>
  </scstep>
  <scstep>
   <time name="diag">    2.75    2.77</time>
   <time name="diis">    2.21    2.21</time>
   <time name="orth">    1.06    1.06</time>
   <time name="total">    6.03    6.06</time>
   <dipole>
    <v name="dipole">      0.00000000       0.00000000      -0.00031019 </v>
    <i name="Tr[quadrupol]">  -1900.55661200 </i>
    <i name="Echarged">      0.00000000 </i>
    <i name="Edipol_quadrupol">      0.00000000 </i>
    <i name="Eion">      0.00000000 </i>
   </dipole>
   <energy>
    <i name="e_fr_energy">     21.78197060 </i>
    <i name="e_wo_entrp">     21.78197060 </i>
    <i name="e_0_energy">     21.78197060 </i>
   </energy>
  </scstep>
  <scstep>
   <time name="diag">    2.75    2.77</time>
   <time name="diis">    2.22    2.22</time>
   <time name="orth">    1.06    1.06</time>
   <time name="total">    6.04    6.06</time>
   <dipole>
    <v name="dipole">      0.00000000       0.00000000      -0.00031019 </v>
    <i name="Tr[quadrupol]">  -1900.55661200 </i>
    <i name="Echarged">      0.00000000 </i>
    <i name="Edipol_quadrupol">      0.00000000 </i>
    <i name="Eion">      0.00000000 </i>
   </dipole>
   <energy>
    <i name="e_fr_energy">    -42.92989044 </i>
    <i name="e_wo_entrp">    -42.92989044 </i>
    <i name="e_0_energy">    -42.92989044 </i>
   </energy>
  </scstep>
  <scstep>
   <time name="diag">    2.77    2.79</time>
   <time name="diis">    2.21    2.21</time>
   <time name="orth">    1.07    1.07</time>
   <time name="total">    6.06    6.08</time>
   <dipole>
    <v name="dipole">      0.00000000       0.00000000      -0.00031019 </v>
    <i name="Tr[quadrupol]">  -1900.55661200 </i>
    <i name="Echarged">      0.00000000 </i>
    <i name="Edipol_quadrupol">      0.00000000 </i>
    <i name="Eion">      0.00000000 </i>
   </dipole>
   <energy>
    <i name="e_fr_energy">    -70.68986813 </i>
    <i name="e_wo_entrp">    -70.68986813 </i>
    <i name="e_0_energy">    -70.68986813 </i>
   </energy>
  </scstep>
  <scstep>
   <time name="diag">    2.75    2.77</time>
   <time name="diis">    2.21    2.21</time>
   <time name="orth">    1.07    1.07</time>
   <time name="total">    6.04    6.06</time>
   <dipole>
    <v name="dipole">      0.00000000       0.00000000      -0.00031019 </v>
    <i name="Tr[quadrupol]">  -1900.55661200 </i>
    <i name="Echarged">      0.00000000 </i>
    <i name="Edipol_quadrupol">      0.00000000 </i>
    <i name="Eion">      0.00000000 </i>
   </dipole>
   <energy>
    <i name="e_fr_energy">    -78.27228329 </i>
    <i name="e_wo_entrp">    -78.27228329 </i>
    <i name="e_0_energy">    -78.27228329 </i>
   </energy>
  </scstep>
  <scstep>
   <time name="diag">    2.75    2.77</time>
   <time name="diis">    5.15    5.15</time>
   <time name="orth">    1.07    1.07</time>
   <time name="total">    8.97    8.99</time>
   <dipole>
    <v name="dipole">      0.00000000       0.00000000      -0.00031019 </v>
    <i name="Tr[quadrupol]">  -1900.55661200 </i>
    <i name="Echarged">      0.00000000 </i>
    <i name="Edipol_quadrupol">      0.00000000 </i>
    <i name="Eion">      0.00000000 </i>
   </dipole>
   <energy>
    <i name="e_fr_energy">    -80.56729933 </i>
    <i name="e_wo_entrp">    -80.56729933 </i>
    <i name="e_0_energy">    -80.56729933 </i>
   </energy>
  </scstep>
  <scstep>
   <time name="diag">    2.75    2.78</time>
   <time name="diis">    5.98    5.98</time>
   <time name="orth">    1.06    1.06</time>
   <time name="total">    9.80    9.82</time>
   <dipole>
    <v name="dipole">      0.00000000       0.00000000      -0.00031019 </v>
    <i name="Tr[quadrupol]">  -1900.55661200 </i>
    <i name="Echarged">      0.00000000 </i>
    <i name="Edipol_quadrupol">      0.00000000 </i>
    <i name="Eion">      0.00000000 </i>
   </dipole>
   <energy>
    <i name="e_fr_energy">    -80.85073760 </i>
    <i name="e_wo_entrp">    -80.85073760 </i>
    <i name="e_0_energy">    -80.85073760 </i>
   </energy>
  </scstep>
  <scstep>
   <time name="diag">    2.76    2.78</time>
   <time name="diis">    5.93    5.93</time>
   <time name="orth">    1.07    1.07</time>
   <time name="total">    9.76    9.78</time>
   <dipole>
    <v name="dipole">      0.00000000       0.00000000      -0.00031019 </v>
    <i name="Tr[quadrupol]">  -1900.55661200 </i>
    <i name="Echarged">      0.00000000 </i>
    <i name="Edipol_quadrupol">      0.00000000 </i>
    <i name="Eion">      0.00000000 </i>
   </dipole>
   <energy>
    <i name="e_fr_energy">    -80.85050107 </i>
    <i name="e_wo_entrp">    -80.85050107 </i>
    <i name="e_0_energy">    -80.85050107 </i>
   </energy>
  </scstep>
  <scstep>
   <time name="diag">    2.76    2.78</time>
   <time name="diis">    6.23    6.23</time>
   <time name="orth">    1.07    1.07</time>
   <time name="total">   10.58   10.59</time>
   <dipole>
    <v name="dipole">      0.00000000       0.00000000      -0.00031019 </v>
    <i name="Tr[quadrupol]">  -1900.55661200 </i>
    <i name="Echarged">      0.00000000 </i>
    <i name="Edipol_quadrupol">      0.00000000 </i>
    <i name="Eion">      0.00000000 </i>
   </dipole>
   <energy>
    <i name="e_fr_energy">    -80.85317179 </i>
    <i name="e_wo_entrp">    -80.85317179 </i>
    <i name="e_0_energy">    -80.85317179 </i>
   </energy>
  </scstep>
  <scstep>
   <time name="diag">    2.74    2.74</time>
   <time name="diis">    5.06    5.06</time>
   <time name="orth">    1.08    1.08</time>
   <time name="total">   19.28   19.30</time>
   <dipole>
    <v name="dipole">      0.00000000       0.00000000       0.57867638 </v>
    <i name="Tr[quadrupol]">  -1912.00257999 </i>
    <i name="Echarged">      0.00000000 </i>
    <i name="Edipol_quadrupol">      0.00000000 </i>
    <i name="Eion">      0.00000000 </i>
   </dipole>
   <energy>
    <i name="e_fr_energy">    -70.92502353 </i>
    <i name="e_wo_entrp">    -70.92502353 </i>
    <i name="e_0_energy">    -70.92502353 </i>
   </energy>
  </scstep>
  <scstep>
   <time name="diag">    2.74    2.74</time>
   <time name="diis">    5.57    5.58</time>
   <time name="orth">    1.07    1.07</time>
   <time name="total">   19.77   19.79</time>
   <dipole>
    <v name="dipole">      0.00000000       0.00000000      -2.04291554 </v>
    <i name="Tr[quadrupol]">  -1896.72800372 </i>
    <i name="Echarged">      0.00000000 </i>
    <i name="Edipol_quadrupol">      0.00000000 </i>
    <i name="Eion">      0.00000000 </i>
   </dipole>
   <energy>
    <i name="e_fr_energy">    -96.82704123 </i>
    <i name="e_wo_entrp">    -96.82704123 </i>
    <i name="e_0_energy">    -96.82704123 </i>
   </energy>
  </scstep>
  <scstep>
   <time name="diag">    2.74    2.74</time>
   <time name="diis">    5.17    5.17</time>
   <time name="orth">    1.07    1.07</time>
   <time name="total">   19.42   19.45</time>
   <dipole>
    <v name="dipole">      0.00000000       0.00000000       0.13011368 </v>
    <i name="Tr[quadrupol]">  -1909.50166800 </i>
    <i name="Echarged">      0.00000000 </i>
    <i name="Edipol_quadrupol">      0.00000000 </i>
    <i name="Eion">      0.00000000 </i>
   </dipole>
   <energy>
    <i name="e_fr_energy">    -69.49362152 </i>
    <i name="e_wo_entrp">    -69.49362152 </i>
    <i name="e_0_energy">    -69.49362152 </i>
   </energy>
  </scstep>
  <scstep>
   <time name="diag">    2.74    2.75</time>
   <time name="diis">    5.59    5.59</time>
   <time name="orth">    1.07    1.07</time>
   <time name="total">   19.80   19.82</time>
   <dipole>
    <v name="dipole">      0.00000000       0.00000000       0.16256731 </v>
    <i name="Tr[quadrupol]">  -1914.64220632 </i>
    <i name="Echarged">      0.00000000 </i>
    <i name="Edipol_quadrupol">      0.00000000 </i>
    <i name="Eion">      0.00000000 </i>
   </dipole>
   <energy>
    <i name="e_fr_energy">    -69.50793189 </i>
    <i name="e_wo_entrp">    -69.50793189 </i>
    <i name="e_0_energy">    -69.50793189 </i>
   </energy>
  </scstep>
  <scstep>
   <time name="diag">    2.74    2.74</time>
   <time name="diis">    4.77    4.77</time>
   <time name="orth">    1.08    1.08</time>
   <time name="total">   19.01   19.03</time>
   <dipole>
    <v name="dipole">      0.00000000       0.00000000      -0.02759702 </v>
    <i name="Tr[quadrupol]">  -1913.40043059 </i>
    <i name="Echarged">      0.00000000 </i>
    <i name="Edipol_quadrupol">      0.00000000 </i>
    <i name="Eion">      0.00000000 </i>
   </dipole>
   <energy>
    <i name="e_fr_energy">    -69.16226611 </i>
    <i name="e_wo_entrp">    -69.16226611 </i>
    <i name="e_0_energy">    -69.16226611 </i>
   </energy>
  </scstep>
  <scstep>
   <time name="diag">    2.74    2.74</time>
   <time name="diis">    5.56    5.56</time>
   <time name="orth">    1.07    1.07</time>
   <time name="total">   19.76   19.79</time>
   <dipole>
    <v name="dipole">      0.00000000       0.00000000      -0.23761941 </v>
    <i name="Tr[quadrupol]">  -1913.68519292 </i>
    <i name="Echarged">      0.00000000 </i>
    <i name="Edipol_quadrupol">      0.00000000 </i>
    <i name="Eion">      0.00000000 </i>
   </dipole>
   <energy>
    <i name="e_fr_energy">    -69.16306092 </i>
    <i name="e_wo_entrp">    -69.16306092 </i>
    <i name="e_0_energy">    -69.16306092 </i>
   </energy>
  </scstep>
  <scstep>
   <time name="diag">    2.74    2.74</time>
   <time name="diis">    4.78    4.78</time>
   <time name="orth">    1.07    1.07</time>
   <time name="total">   19.02   19.04</time>
   <dipole>
    <v name="dipole">      0.00000000       0.00000000      -0.26815469 </v>
    <i name="Tr[quadrupol]">  -1914.84182800 </i>
    <i name="Echarged">      0.00000000 </i>
    <i name="Edipol_quadrupol">      0.00000000 </i>
    <i name="Eion">      0.00000000 </i>
   </dipole>
   <energy>
    <i name="e_fr_energy">    -69.13928159 </i>
    <i name="e_wo_entrp">    -69.13928159 </i>
    <i name="e_0_energy">    -69.13928159 </i>
   </energy>
  </scstep>
  <scstep>
   <time name="diag">    2.74    2.74</time>
   <time name="diis">    5.19    5.19</time>
   <time name="orth">    1.07    1.07</time>
   <time name="total">   19.45   19.48</time>
   <dipole>
    <v name="dipole">      0.00000000       0.00000000      -0.28235192 </v>
    <i name="Tr[quadrupol]">  -1915.11138824 </i>
    <i name="Echarged">      0.00000000 </i>
    <i name="Edipol_quadrupol">      0.00000000 </i>
    <i name="Eion">      0.00000000 </i>
   </dipole>
   <energy>
    <i name="e_fr_energy">    -69.13680961 </i>
    <i name="e_wo_entrp">    -69.13680961 </i>
    <i name="e_0_energy">    -69.13680961 </i>
   </energy>
  </scstep>
  <scstep>
   <time name="diag">    2.76    2.76</time>
   <time name="diis">    5.45    5.45</time>
   <time name="orth">    1.07    1.07</time>
   <time name="total">   19.71   19.74</time>
   <dipole>
    <v name="dipole">      0.00000000       0.00000000      -0.28054573 </v>
    <i name="Tr[quadrupol]">  -1915.66232218 </i>
    <i name="Echarged">      0.00000000 </i>
    <i name="Edipol_quadrupol">      0.00000000 </i>
    <i name="Eion">      0.00000000 </i>
   </dipole>
   <energy>
    <i name="e_fr_energy">    -69.13399560 </i>
    <i name="e_wo_entrp">    -69.13399560 </i>
    <i name="e_0_energy">    -69.13399560 </i>
   </energy>
  </scstep>
  <scstep>
   <time name="diag">    2.74    2.74</time>
   <time name="diis">    4.98    4.98</time>
   <time name="orth">    1.07    1.07</time>
   <time name="total">   19.25   19.27</time>
   <dipole>
    <v name="dipole">      0.00000000       0.00000000      -0.28061603 </v>
    <i name="Tr[quadrupol]">  -1915.98804978 </i>
    <i name="Echarged">      0.00000000 </i>
    <i name="Edipol_quadrupol">      0.00000000 </i>
    <i name="Eion">      0.00000000 </i>
   </dipole>
   <energy>
    <i name="e_fr_energy">    -69.12859107 </i>
    <i name="e_wo_entrp">    -69.12859107 </i>
    <i name="e_0_energy">    -69.12859107 </i>
   </energy>
  </scstep>
  <scstep>
   <time name="diag">    2.73    2.73</time>
   <time name="diis">    4.41    4.41</time>
   <time name="orth">    1.07    1.07</time>
   <time name="total">   18.64   18.67</time>
   <dipole>
    <v name="dipole">      0.00000000       0.00000000      -0.27851799 </v>
    <i name="Tr[quadrupol]">  -1916.20092504 </i>
    <i name="Echarged">      0.00000000 </i>
    <i name="Edipol_quadrupol">      0.00000000 </i>
    <i name="Eion">      0.00000000 </i>
   </dipole>
   <energy>
    <i name="e_fr_energy">    -69.12394828 </i>
    <i name="e_wo_entrp">    -69.12394828 </i>
    <i name="e_0_energy">    -69.12394828 </i>
   </energy>
  </scstep>
  <scstep>
   <time name="diag">    2.82    2.82</time>
   <time name="diis">    4.10    4.10</time>
   <time name="orth">    1.07    1.07</time>
   <time name="total">   18.42   18.44</time>
   <dipole>
    <v name="dipole">      0.00000000       0.00000000      -0.26672247 </v>
    <i name="Tr[quadrupol]">  -1916.51125944 </i>
    <i name="Echarged">      0.00000000 </i>
    <i name="Edipol_quadrupol">      0.00000000 </i>
    <i name="Eion">      0.00000000 </i>
   </dipole>
   <energy>
    <i name="e_fr_energy">    -69.12507004 </i>
    <i name="e_wo_entrp">    -69.12507004 </i>
    <i name="e_0_energy">    -69.12507004 </i>
   </energy>
  </scstep>
  <scstep>
   <time name="diag">    2.74    2.74</time>
   <time name="diis">    3.96    3.96</time>
   <time name="orth">    1.07    1.07</time>
   <time name="total">   18.22   18.24</time>
   <dipole>
    <v name="dipole">      0.00000000       0.00000000      -0.26260222 </v>
    <i name="Tr[quadrupol]">  -1916.57410156 </i>
    <i name="Echarged">      0.00000000 </i>
    <i name="Edipol_quadrupol">      0.00000000 </i>
    <i name="Eion">      0.00000000 </i>
   </dipole>
   <energy>
    <i name="e_fr_energy">    -69.12562745 </i>
    <i name="e_wo_entrp">    -69.12562745 </i>
    <i name="e_0_energy">    -69.12562745 </i>
   </energy>
  </scstep>
  <scstep>
   <time name="diag">    2.75    2.75</time>
   <time name="diis">    3.83    3.83</time>
   <time name="orth">    1.08    1.08</time>
   <time name="total">   18.14   18.16</time>
   <dipole>
    <v name="dipole">      0.00000000       0.00000000      -0.25745960 </v>
    <i name="Tr[quadrupol]">  -1916.63544681 </i>
    <i name="Echarged">      0.00000000 </i>
    <i name="Edipol_quadrupol">      0.00000000 </i>
    <i name="Eion">      0.00000000 </i>
   </dipole>
   <energy>
    <i name="e_fr_energy">    -69.12551274 </i>
    <i name="e_wo_entrp">    -69.12551274 </i>
    <i name="e_0_energy">    -69.12551274 </i>
   </energy>
  </scstep>
  <scstep>
   <time name="diag">    2.74    2.74</time>
   <time name="diis">    3.82    3.82</time>
   <time name="orth">    1.07    1.07</time>
   <time name="total">   18.10   18.12</time>
   <dipole>
    <v name="dipole">      0.00000000       0.00000000      -0.25535430 </v>
    <i name="Tr[quadrupol]">  -1916.66807356 </i>
    <i name="Echarged">      0.00000000 </i>
    <i name="Edipol_quadrupol">      0.00000000 </i>
    <i name="Eion">      0.00000000 </i>
   </dipole>
   <energy>
    <i name="e_fr_energy">    -69.12547255 </i>
    <i name="e_wo_entrp">    -69.12547255 </i>
    <i name="e_0_energy">    -69.12547255 </i>
   </energy>
  </scstep>
  <scstep>
   <time name="diag">    2.74    2.74</time>
   <time name="diis">    3.47    3.47</time>
   <time name="orth">    1.07    1.07</time>
   <time name="total">   17.81   17.83</time>
   <dipole>
    <v name="dipole">      0.00000000       0.00000000      -0.25400489 </v>
    <i name="Tr[quadrupol]">  -1916.67232166 </i>
    <i name="Echarged">      0.00000000 </i>
    <i name="Edipol_quadrupol">      0.00000000 </i>
    <i name="Eion">      0.00000000 </i>
   </dipole>
   <energy>
    <i name="e_fr_energy">    -69.12550102 </i>
    <i name="e_wo_entrp">    -69.12550102 </i>
    <i name="e_0_energy">    -69.12550102 </i>
   </energy>
  </scstep>
  <scstep>
   <time name="diag">    2.74    2.74</time>
   <time name="diis">    3.18    3.18</time>
   <time name="orth">    1.08    1.08</time>
   <time name="total">   17.53   17.56</time>
   <dipole>
    <v name="dipole">      0.00000000       0.00000000      -0.25323433 </v>
    <i name="Tr[quadrupol]">  -1916.66657612 </i>
    <i name="Echarged">      0.00000000 </i>
    <i name="Edipol_quadrupol">      0.00000000 </i>
    <i name="Eion">      0.00000000 </i>
   </dipole>
   <energy>
    <i name="e_fr_energy">    -69.12554335 </i>
    <i name="e_wo_entrp">    -69.12554335 </i>
    <i name="e_0_energy">    -69.12554335 </i>
   </energy>
  </scstep>
  <scstep>
   <time name="diag">    2.74    2.74</time>
   <time name="diis">    3.14    3.14</time>
   <time name="orth">    1.08    1.08</time>
   <time name="total">   17.42   17.45</time>
   <dipole>
    <v name="dipole">      0.00000000       0.00000000      -0.25341967 </v>
    <i name="Tr[quadrupol]">  -1916.53190584 </i>
    <i name="Echarged">      0.00000000 </i>
    <i name="Edipol_quadrupol">      0.00000000 </i>
    <i name="Eion">      0.00000000 </i>
   </dipole>
   <energy>
    <i name="e_fr_energy">    -69.12554906 </i>
    <i name="e_wo_entrp">    -69.12554906 </i>
    <i name="e_0_energy">    -69.12554906 </i>
   </energy>
  </scstep>
  <scstep>
   <time name="diag">    2.75    2.75</time>
   <time name="diis">    2.95    2.95</time>
   <time name="orth">    1.08    1.08</time>
   <time name="total">   17.32   17.34</time>
   <dipole>
    <v name="dipole">      0.00000000       0.00000000      -0.25338175 </v>
    <i name="Tr[quadrupol]">  -1916.82766772 </i>
    <i name="Echarged">      0.00000000 </i>
    <i name="Edipol_quadrupol">      0.00000000 </i>
    <i name="Eion">      0.00000000 </i>
   </dipole>
   <energy>
    <i name="e_fr_energy">    -69.12557250 </i>
    <i name="e_wo_entrp">    -69.12557250 </i>
    <i name="e_0_energy">    -69.12557250 </i>
   </energy>
  </scstep>
  <scstep>
   <time name="diag">    2.75    2.75</time>
   <time name="diis">    2.91    2.91</time>
   <time name="orth">    1.07    1.07</time>
   <time name="total">   17.26   17.29</time>
   <dipole>
    <v name="dipole">      0.00000000       0.00000000      -0.25392241 </v>
    <i name="Tr[quadrupol]">  -1916.89211741 </i>
    <i name="Echarged">      0.00000000 </i>
    <i name="Edipol_quadrupol">      0.00000000 </i>
    <i name="Eion">      0.00000000 </i>
   </dipole>
   <energy>
    <i name="e_fr_energy">    -69.12560293 </i>
    <i name="e_wo_entrp">    -69.12560293 </i>
    <i name="e_0_energy">    -69.12560293 </i>
   </energy>
  </scstep>
  <scstep>
   <time name="diag">    2.75    2.75</time>
   <time name="diis">    3.26    3.26</time>
   <time name="orth">    1.07    1.07</time>
   <time name="total">   17.59   17.62</time>
   <dipole>
    <v name="dipole">      0.00000000       0.00000000      -0.25429612 </v>
    <i name="Tr[quadrupol]">  -1916.92591201 </i>
    <i name="Echarged">      0.00000000 </i>
    <i name="Edipol_quadrupol">      0.00000000 </i>
    <i name="Eion">      0.00000000 </i>
   </dipole>
   <energy>
    <i name="e_fr_energy">    -69.12558830 </i>
    <i name="e_wo_entrp">    -69.12558830 </i>
    <i name="e_0_energy">    -69.12558830 </i>
   </energy>
  </scstep>
  <scstep>
   <time name="diag">    2.74    2.74</time>
   <time name="diis">    3.91    3.91</time>
   <time name="orth">    1.07    1.07</time>
   <time name="total">   18.17   18.20</time>
   <dipole>
    <v name="dipole">      0.00000000       0.00000000      -0.25461322 </v>
    <i name="Tr[quadrupol]">  -1916.96012671 </i>
    <i name="Echarged">      0.00000000 </i>
    <i name="Edipol_quadrupol">      0.00000000 </i>
    <i name="Eion">      0.00000000 </i>
   </dipole>
   <energy>
    <i name="e_fr_energy">    -69.12555130 </i>
    <i name="e_wo_entrp">    -69.12555130 </i>
    <i name="e_0_energy">    -69.12555130 </i>
   </energy>
  </scstep>
  <scstep>
   <time name="diag">    2.75    2.75</time>
   <time name="diis">    3.79    3.79</time>
   <time name="orth">    1.07    1.07</time>
   <time name="total">   18.14   18.16</time>
   <dipole>
    <v name="dipole">      0.00000000       0.00000000      -0.25464813 </v>
    <i name="Tr[quadrupol]">  -1917.02679998 </i>
    <i name="Echarged">      0.00000000 </i>
    <i name="Edipol_quadrupol">      0.00000000 </i>
    <i name="Eion">      0.00000000 </i>
   </dipole>
   <energy>
    <i name="e_fr_energy">    -69.12554718 </i>
    <i name="e_wo_entrp">    -69.12554718 </i>
    <i name="e_0_energy">    -69.12554718 </i>
   </energy>
  </scstep>
  <scstep>
   <time name="diag">    2.74    2.74</time>
   <time name="diis">    4.30    4.30</time>
   <time name="orth">    1.08    1.08</time>
   <time name="total">   18.58   18.60</time>
   <dipole>
    <v name="dipole">      0.00000000       0.00000000      -0.25484865 </v>
    <i name="Tr[quadrupol]">  -1917.12695999 </i>
    <i name="Echarged">      0.00000000 </i>
    <i name="Edipol_quadrupol">      0.00000000 </i>
    <i name="Eion">      0.00000000 </i>
   </dipole>
   <energy>
    <i name="e_fr_energy">    -69.12553267 </i>
    <i name="e_wo_entrp">    -69.12553267 </i>
    <i name="e_0_energy">    -69.12553267 </i>
   </energy>
  </scstep>
  <scstep>
   <time name="diag">    2.75    2.75</time>
   <time name="diis">    4.53    4.53</time>
   <time name="orth">    1.06    1.06</time>
   <time name="total">   18.68   18.70</time>
   <dipole>
    <v name="dipole">      0.00000000       0.00000000      -0.25489817 </v>
    <i name="Tr[quadrupol]">  -1917.22669970 </i>
    <i name="Echarged">      0.00000000 </i>
    <i name="Edipol_quadrupol">      0.00000000 </i>
    <i name="Eion">      0.00000000 </i>
   </dipole>
   <energy>
    <i name="e_fr_energy">    -69.12554040 </i>
    <i name="e_wo_entrp">    -69.12554040 </i>
    <i name="e_0_energy">    -69.12554040 </i>
   </energy>
  </scstep>
  <scstep>
   <time name="diag">    2.72    2.72</time>
   <time name="diis">    4.38    4.38</time>
   <time name="orth">    1.02    1.02</time>
   <time name="total">   16.62   16.64</time>
   <dipole>
    <v name="dipole">      0.00000000       0.00000000      -0.25488196 </v>
    <i name="Tr[quadrupol]">  -1917.29316017 </i>
    <i name="Echarged">      0.00000000 </i>
    <i name="Edipol_quadrupol">      0.00000000 </i>
    <i name="Eion">      0.00000000 </i>
   </dipole>
   <energy>
    <i name="e_fr_energy">    -69.12553553 </i>
    <i name="e_wo_entrp">    -69.12553553 </i>
    <i name="e_0_energy">    -69.12553553 </i>
   </energy>
  </scstep>
  <scstep>
   <time name="diag">    2.70    2.70</time>
   <time name="diis">    4.37    4.37</time>
   <time name="orth">    1.02    1.02</time>
   <time name="total">   18.51   18.53</time>
   <dipole>
    <v name="dipole">      0.00000000       0.00000000      -0.25492662 </v>
    <i name="Tr[quadrupol]">  -1917.32631362 </i>
    <i name="Echarged">      0.00000000 </i>
    <i name="Edipol_quadrupol">      0.00000000 </i>
    <i name="Eion">      0.00000000 </i>
   </dipole>
   <energy>
    <i name="e_fr_energy">    -69.12556653 </i>
    <i name="e_wo_entrp">    -69.12556653 </i>
    <i name="e_0_energy">    -69.12556653 </i>
   </energy>
  </scstep>
  <scstep>
   <time name="diag">    2.17    2.17</time>
   <time name="diis">    2.89    2.89</time>
   <time name="orth">    0.45    0.45</time>
   <time name="total">   15.66   15.68</time>
   <dipole>
    <v name="dipole">      0.00000000       0.00000000      -0.25490735 </v>
    <i name="Tr[quadrupol]">  -1917.39271013 </i>
    <i name="Echarged">      0.00000000 </i>
    <i name="Edipol_quadrupol">      0.00000000 </i>
    <i name="Eion">      0.00000000 </i>
   </dipole>
   <energy>
    <i name="e_fr_energy">    -69.12555644 </i>
    <i name="e_wo_entrp">    -69.12555644 </i>
    <i name="e_0_energy">    -69.12555644 </i>
   </energy>
  </scstep>
  <scstep>
   <time name="diag">    1.66    1.66</time>
   <time name="diis">    2.99    2.99</time>
   <time name="orth">    0.57    0.57</time>
   <time name="total">   12.90   12.92</time>
   <dipole>
    <v name="dipole">      0.00000000       0.00000000      -0.25489675 </v>
    <i name="Tr[quadrupol]">  -1917.42589165 </i>
    <i name="Echarged">      0.00000000 </i>
    <i name="Edipol_quadrupol">      0.00000000 </i>
    <i name="Eion">      0.00000000 </i>
   </dipole>
   <energy>
    <i name="alphaZ">     66.23343830 </i>
    <i name="ewald">  12947.61092058 </i>
    <i name="hartreedc"> -16412.28047601 </i>
    <i name="XCdc">  -2034.81886846 </i>
    <i name="pawpsdc">   5960.05585565 </i>
    <i name="pawaedc">  -3546.37777884 </i>
    <i name="eentropy">      0.00000000 </i>
    <i name="bandstr">   -877.53679449 </i>
    <i name="atom">   3827.98814510 </i>
    <i name="e_fr_energy">    -69.12555816 </i>
    <i name="e_wo_entrp">    -69.12555816 </i>
    <i name="e_0_energy">    -69.12555816 </i>
   </energy>
  </scstep>
  <structure>
   <crystal>
    <varray name="basis" >
     <v>       9.55575275       0.00000000       0.00000000 </v>
     <v>      -4.77787638       8.27552464       0.00000000 </v>
     <v>       0.00000000       0.00000000      32.62509537 </v>
    </varray>
    <i name="volume">   2579.95558872 </i>
    <varray name="rec_basis" >
     <v>       0.10464900       0.06041913       0.00000000 </v>
     <v>       0.00000000       0.12083826       0.00000000 </v>
     <v>       0.00000000       0.00000000       0.03065125 </v>
    </varray>
   </crystal>
   <varray name="positions" >
    <v>       0.00000000       0.00000000       0.00000000 </v>
    <v>       0.99707982       0.99828205       0.15824017 </v>
    <v>       0.99890872       0.00317084       0.33116994 </v>
    <v>       0.00000001       0.33333336       0.00000000 </v>
    <v>       0.99845875       0.33302844       0.15746069 </v>
    <v>       0.98720526       0.33092091       0.31086162 </v>
    <v>       0.00000002       0.66666672       0.00000000 </v>
    <v>       0.99697840       0.66516575       0.15783178 </v>
    <v>       0.99756958       0.67299252       0.31445419 </v>
    <v>       0.33333334       0.00000000       0.00000000 </v>
    <v>       0.33106684       0.99826024       0.15736023 </v>
    <v>       0.32413327       0.99802124       0.30938230 </v>
    <v>       0.33333335       0.33333336       0.00000000 </v>
    <v>       0.33066274       0.33093926       0.15685745 </v>
    <v>       0.31723080       0.32290135       0.31131598 </v>
    <v>       0.33333336       0.66666672       0.00000000 </v>
    <v>       0.33038992       0.66588661       0.15799198 </v>
    <v>       0.31314120       0.66843457       0.32968792 </v>
    <v>       0.66666668       0.00000000       0.00000000 </v>
    <v>       0.66485566       0.99733788       0.15775292 </v>
    <v>       0.66327200       0.00404376       0.31398838 </v>
    <v>       0.66666668       0.33333336       0.00000000 </v>
    <v>       0.66498465       0.33409806       0.15874075 </v>
    <v>       0.65750578       0.31955717       0.32624825 </v>
    <v>       0.66666670       0.66666672       0.00000000 </v>
    <v>       0.66723473       0.66624623       0.15892793 </v>
    <v>       0.65976087       0.67239319       0.32921256 </v>
    <v>       0.11111113       0.22222222       0.07982145 </v>
    <v>       0.10425316       0.21781824       0.23561370 </v>
    <v>       0.11111114       0.55555561       0.07982145 </v>
    <v>       0.11124166       0.55701266       0.23672088 </v>
    <v>       0.11111116       0.88888894       0.07982145 </v>
    <v>       0.10407612       0.88625816       0.23479584 </v>
    <v>       0.44444450       0.22222222       0.07982145 </v>
    <v>       0.44286725       0.22359304       0.23568008 </v>
    <v>       0.44444450       0.55555561       0.07982145 </v>
    <v>       0.44103177       0.55406453       0.23441343 </v>
    <v>       0.44444451       0.88888894       0.07982145 </v>
    <v>       0.44097596       0.88197814       0.23639114 </v>
    <v>       0.77777779       0.22222222       0.07982145 </v>
    <v>       0.77064418       0.21870975       0.23480486 </v>
    <v>       0.77777781       0.55555561       0.07982145 </v>
    <v>       0.76697690       0.54885593       0.24168631 </v>
    <v>       0.77777784       0.88888894       0.07982145 </v>
    <v>       0.77536278       0.88297513       0.24089283 </v>
    <v>       0.99652861       0.00833680       0.39628487 </v>
    <v>       0.27637679       0.96255537       0.41395276 </v>
    <v>       0.90641993       0.24000451       0.41412517 </v>
    <v>       0.62988022       0.35406059       0.38834152 </v>
    <v>       0.63156333       0.62362938       0.38912558 </v>
    <v>       0.34489359       0.67919712       0.39391517 </v>
    <v>       0.97494860       0.09104082       0.40858103 </v>
    <v>       0.08707848       0.00861829       0.41084859 </v>
    <v>       0.37512305       0.06819945       0.41142228 </v>
    <v>       0.24426436       0.93010020       0.38494652 </v>
    <v>       0.00219447       0.34758034       0.41148926 </v>
    <v>       0.85930869       0.21782124       0.38600228 </v>
    <v>       0.63164589       0.46500626       0.39260041 </v>
    <v>       0.70768708       0.35015436       0.40710154 </v>
    <v>       0.72365297       0.70173289       0.40527432 </v>
    <v>       0.42323341       0.54609672       0.32632407 </v>
    <v>       0.34444368       0.76922415       0.40842029 </v>
    <v>       0.44080263       0.67157856       0.40218986 </v>
   </varray>
  </structure>
  <varray name="forces" >
   <v>       0.02116785      -0.00544704       0.00506055 </v>
   <v>       0.01821011      -0.00873558       0.00373243 </v>
   <v>       0.00928189      -0.00133992      -0.00041928 </v>
   <v>      -0.04351187      -0.01808038      -0.03615188 </v>
   <v>       0.00313807       0.00310929      -0.00144478 </v>
   <v>       0.00031591      -0.00306722       0.01855277 </v>
   <v>       0.02476930       0.02713081      -0.01838023 </v>
   <v>      -0.01187704       0.01904903      -0.00155279 </v>
   <v>       0.00488446       0.02639023       0.00759214 </v>
   <v>      -0.01413084      -0.02285809      -0.02058353 </v>
   <v>      -0.01040921      -0.00692999       0.00088262 </v>
   <v>      -0.02094647      -0.00614578       0.01033298 </v>
   <v>      -0.00030625       0.00226361      -0.03785964 </v>
   <v>       0.00828498      -0.01721287      -0.01210206 </v>
   <v>      -0.00556223      -0.00637843      -0.00259435 </v>
   <v>      -0.01524213       0.00430095      -0.02925945 </v>
   <v>      -0.01692737       0.01874062      -0.00197138 </v>
   <v>      -0.01238831      -0.00512716      -0.00759478 </v>
   <v>      -0.00355926       0.05048019      -0.04324687 </v>
   <v>      -0.00567086      -0.01032984      -0.00246333 </v>
   <v>       0.00476061       0.01790241       0.02152274 </v>
   <v>       0.04626928      -0.03341856      -0.02300691 </v>
   <v>      -0.01182968       0.00988540       0.00150449 </v>
   <v>      -0.00139816       0.00175000       0.01468587 </v>
   <v>      -0.01719187       0.00039996      -0.03788816 </v>
   <v>       0.01480457       0.00032318      -0.01204648 </v>
   <v>      -0.00279027       0.01514997       0.01668265 </v>
   <v>       0.00285423      -0.02985768       0.01893687 </v>
   <v>       0.00099552      -0.01155250       0.00438221 </v>
   <v>       0.01735070       0.01027962       0.03121262 </v>
   <v>      -0.00070982       0.00981781       0.00613527 </v>
   <v>      -0.04107410       0.00355909      -0.04835637 </v>
   <v>      -0.02348749       0.00112699       0.01950452 </v>
   <v>      -0.00412728       0.01775999       0.03962506 </v>
   <v>       0.00173382       0.01853118      -0.00396284 </v>
   <v>       0.01170011       0.01679028       0.00800406 </v>
   <v>       0.00312716      -0.00366835       0.00315347 </v>
   <v>      -0.00231942      -0.04167173       0.04288818 </v>
   <v>      -0.00237421      -0.01205963      -0.00410617 </v>
   <v>      -0.01298746       0.00697458      -0.01613986 </v>
   <v>      -0.01306238       0.00955948      -0.00534009 </v>
   <v>      -0.03802694      -0.00278847       0.07644718 </v>
   <v>      -0.00625517      -0.00992555      -0.01534777 </v>
   <v>       0.02077286      -0.03014896       0.05103290 </v>
   <v>       0.00442755       0.00392912      -0.00137064 </v>
   <v>       0.00186609      -0.00284464       0.00624470 </v>
   <v>      -0.00232343       0.00042711       0.02382128 </v>
   <v>       0.00862339      -0.00330599       0.02890740 </v>
   <v>      -0.02488450       0.02129062       0.01153336 </v>
   <v>      -0.06563947       0.01846338       0.01678932 </v>
   <v>       0.07077578      -0.01759606      -0.01280820 </v>
   <v>       0.00550195      -0.00237837      -0.00099160 </v>
   <v>       0.00966289      -0.00356473      -0.01214005 </v>
   <v>      -0.01182740       0.00027936      -0.00525580 </v>
   <v>       0.01075293      -0.03725426       0.00843692 </v>
   <v>       0.01190457      -0.00794478       0.00341132 </v>
   <v>      -0.00342170      -0.00424395       0.00184942 </v>
   <v>      -0.03264993       0.00923778       0.00303395 </v>
   <v>      -0.02390701       0.03047192       0.00948768 </v>
   <v>      -0.02126470       0.02299529      -0.00347733 </v>
   <v>       0.00435305       0.00309591      -0.03715453 </v>
   <v>       0.08266275      -0.02259116       0.00450550 </v>
   <v>       0.09913184      -0.01299750      -0.06487528 </v>
  </varray>
  <varray name="stress" >
   <v>      -5.80796726       0.57773007       0.54939910 </v>
   <v>       0.57772996      -5.68913787       0.16982434 </v>
   <v>       0.54939897       0.16982425       0.44922186 </v>
  </varray>
  <energy>
   <i name="e_fr_energy">    -69.12555816 </i>
   <i name="e_wo_entrp">    -69.12555816 </i>
   <i name="e_0_energy">      0.00000000 </i>
  </energy>
  <time name="totalsc">  660.06  662.16</time>
  <eigenvalues>
   <array>
    <dimension dim="1">band</dimension>
    <dimension dim="2">kpoint</dimension>
    <dimension dim="3">spin</dimension>
    <field>eigene</field>
    <field>occ</field>
    <set>
     <set comment="spin 1">
      <set comment="kpoint 1">
       <r>  -23.7472    1.0000 </r>
       <r>  -23.6359    1.0000 </r>
       <r>  -23.3365    1.0000 </r>
       <r>  -23.2231    1.0000 </r>
       <r>  -22.9964    1.0000 </r>
       <r>  -20.8813    1.0000 </r>
       <r>  -11.8300    1.0000 </r>
       <r>  -11.7249    1.0000 </r>
       <r>  -11.1923    1.0000 </r>
       <r>  -11.0666    1.0000 </r>
       <r>  -10.9692    1.0000 </r>
       <r>   -8.6801    1.0000 </r>
       <r>   -8.6235    1.0000 </r>
       <r>   -8.3983    1.0000 </r>
       <r>   -8.1647    1.0000 </r>
       <r>   -7.7581    1.0000 </r>
       <r>   -7.6772    1.0000 </r>
       <r>   -7.5571    1.0000 </r>
       <r>   -7.0665    1.0000 </r>
       <r>   -6.5913    1.0000 </r>
       <r>   -6.3598    1.0000 </r>
       <r>   -6.2880    1.0000 </r>
       <r>   -6.1191    1.0000 </r>
       <r>   -5.8023    1.0000 </r>
       <r>   -5.7621    1.0000 </r>
       <r>   -5.6919    1.0000 </r>
       <r>   -5.4123    1.0000 </r>
       <r>   -5.4003    1.0000 </r>
       <r>   -5.3922    1.0000 </r>
       <r>   -5.3660    1.0000 </r>
       <r>   -5.3498    1.0000 </r>
       <r>   -5.3120    1.0000 </r>
       <r>   -5.0854    1.0000 </r>
       <r>   -4.8743    1.0000 </r>
       <r>   -4.8695    1.0000 </r>
       <r>   -4.8467    1.0000 </r>
       <r>   -4.8035    1.0000 </r>
       <r>   -4.7467    1.0000 </r>
       <r>   -4.6892    1.0000 </r>
       <r>   -4.6017    1.0000 </r>
       <r>   -4.4389    1.0000 </r>
       <r>   -3.9997    1.0000 </r>
       <r>   -3.9695    1.0000 </r>
       <r>   -3.9300    1.0000 </r>
       <r>   -3.8294    1.0000 </r>
       <r>   -3.8072    1.0000 </r>
       <r>   -3.4430    1.0000 </r>
       <r>   -3.2033    1.0000 </r>
       <r>   -2.8503    1.0000 </r>
       <r>   -2.7843    1.0000 </r>
       <r>   -2.7737    1.0000 </r>
       <r>   -2.7073    1.0000 </r>
       <r>   -2.6488    1.0000 </r>
       <r>   -1.9934    1.0000 </r>
       <r>   -1.7930    1.0000 </r>
       <r>   -1.4296    1.0000 </r>
       <r>   -1.3255    1.0000 </r>
       <r>   -1.2887    1.0000 </r>
       <r>   -1.2621    1.0000 </r>
       <r>   -1.2264    1.0000 </r>
       <r>   -1.2163    1.0000 </r>
       <r>   -1.2104    1.0000 </r>
       <r>   -1.1898    1.0000 </r>
       <r>   -1.1804    1.0000 </r>
       <r>   -1.1690    1.0000 </r>
       <r>   -1.1051    1.0000 </r>
       <r>   -0.8911    1.0000 </r>
       <r>   -0.8811    1.0000 </r>
       <r>   -0.8005    0.6785 </r>
       <r>   -0.6797    0.0000 </r>
       <r>   -0.6520    0.0000 </r>
       <r>   -0.5577    0.0000 </r>
       <r>   -0.4301    0.0000 </r>
       <r>   -0.2498    0.0000 </r>
       <r>   -0.1603    0.0000 </r>
       <r>   -0.0125    0.0000 </r>
       <r>    0.0589    0.0000 </r>
       <r>    0.1022    0.0000 </r>
       <r>    0.1194    0.0000 </r>
       <r>    0.1466    0.0000 </r>
       <r>    0.2468    0.0000 </r>
       <r>    0.3411    0.0000 </r>
       <r>    0.4392    0.0000 </r>
       <r>    0.8137    0.0000 </r>
       <r>    0.8702    0.0000 </r>
       <r>    0.8843    0.0000 </r>
       <r>    0.8872    0.0000 </r>
       <r>    0.9169    0.0000 </r>
       <r>    0.9347    0.0000 </r>
       <r>    0.9474    0.0000 </r>
       <r>    0.9664    0.0000 </r>
       <r>    1.0484    0.0000 </r>
       <r>    1.1605    0.0000 </r>
       <r>    1.1741    0.0000 </r>
       <r>    1.2375    0.0000 </r>
       <r>    1.4233    0.0000 </r>
       <r>    1.4383    0.0000 </r>
       <r>    1.4509    0.0000 </r>
       <r>    1.4770    0.0000 </r>
       <r>    1.4862    0.0000 </r>
       <r>    1.5335    0.0000 </r>
       <r>    1.6479    0.0000 </r>
      </set>
      <set comment="kpoint 2">
       <r>  -23.7469    1.0000 </r>
       <r>  -23.6358    1.0000 </r>
       <r>  -23.3389    1.0000 </r>
       <r>  -23.2204    1.0000 </r>
       <r>  -22.9969    1.0000 </r>
       <r>  -20.8813    1.0000 </r>
       <r>  -11.8295    1.0000 </r>
       <r>  -11.7247    1.0000 </r>
       <r>  -11.1992    1.0000 </r>
       <r>  -11.0516    1.0000 </r>
       <r>  -10.9776    1.0000 </r>
       <r>   -8.6768    1.0000 </r>
       <r>   -8.6201    1.0000 </r>
       <r>   -8.4058    1.0000 </r>
       <r>   -8.1558    1.0000 </r>
       <r>   -7.7495    1.0000 </r>
       <r>   -7.6848    1.0000 </r>
       <r>   -7.3271    1.0000 </r>
       <r>   -6.9221    1.0000 </r>
       <r>   -6.6203    1.0000 </r>
       <r>   -6.5011    1.0000 </r>
       <r>   -6.3735    1.0000 </r>
       <r>   -6.2416    1.0000 </r>
       <r>   -6.1402    1.0000 </r>
       <r>   -5.9409    1.0000 </r>
       <r>   -5.8578    1.0000 </r>
       <r>   -5.8390    1.0000 </r>
       <r>   -5.7460    1.0000 </r>
       <r>   -5.6968    1.0000 </r>
       <r>   -5.6078    1.0000 </r>
       <r>   -5.2715    1.0000 </r>
       <r>   -5.2186    1.0000 </r>
       <r>   -5.0632    1.0000 </r>
       <r>   -4.8733    1.0000 </r>
       <r>   -4.6454    1.0000 </r>
       <r>   -4.5559    1.0000 </r>
       <r>   -4.4381    1.0000 </r>
       <r>   -4.4156    1.0000 </r>
       <r>   -4.3384    1.0000 </r>
       <r>   -4.1553    1.0000 </r>
       <r>   -3.8845    1.0000 </r>
       <r>   -3.8349    1.0000 </r>
       <r>   -3.7432    1.0000 </r>
       <r>   -3.6188    1.0000 </r>
       <r>   -3.2239    1.0000 </r>
       <r>   -3.1881    1.0000 </r>
       <r>   -3.1269    1.0000 </r>
       <r>   -3.0676    1.0000 </r>
       <r>   -3.0351    1.0000 </r>
       <r>   -3.0136    1.0000 </r>
       <r>   -2.9527    1.0000 </r>
       <r>   -2.6502    1.0000 </r>
       <r>   -2.4884    1.0000 </r>
       <r>   -2.4207    1.0000 </r>
       <r>   -2.3513    1.0000 </r>
       <r>   -2.1453    1.0000 </r>
       <r>   -1.8635    1.0000 </r>
       <r>   -1.8311    1.0000 </r>
       <r>   -1.7537    1.0000 </r>
       <r>   -1.6844    1.0000 </r>
       <r>   -1.6519    1.0000 </r>
       <r>   -1.6173    1.0000 </r>
       <r>   -1.5911    1.0000 </r>
       <r>   -1.4649    1.0000 </r>
       <r>   -1.1137    1.0000 </r>
       <r>   -1.0005    1.0000 </r>
       <r>   -0.9744    1.0000 </r>
       <r>   -0.9052    1.0000 </r>
       <r>   -0.7666    0.3824 </r>
       <r>   -0.7572    0.1139 </r>
       <r>   -0.6970   -0.0350 </r>
       <r>   -0.6073    0.0000 </r>
       <r>   -0.3847    0.0000 </r>
       <r>   -0.2147    0.0000 </r>
       <r>   -0.1729    0.0000 </r>
       <r>   -0.1102    0.0000 </r>
       <r>   -0.0808    0.0000 </r>
       <r>    0.0586    0.0000 </r>
       <r>    0.1301    0.0000 </r>
       <r>    0.1673    0.0000 </r>
       <r>    0.2816    0.0000 </r>
       <r>    0.3525    0.0000 </r>
       <r>    0.3917    0.0000 </r>
       <r>    0.4574    0.0000 </r>
       <r>    0.4919    0.0000 </r>
       <r>    0.6440    0.0000 </r>
       <r>    0.7545    0.0000 </r>
       <r>    0.8097    0.0000 </r>
       <r>    0.8935    0.0000 </r>
       <r>    1.0234    0.0000 </r>
       <r>    1.0484    0.0000 </r>
       <r>    1.1176    0.0000 </r>
       <r>    1.1619    0.0000 </r>
       <r>    1.2189    0.0000 </r>
       <r>    1.2453    0.0000 </r>
       <r>    1.3009    0.0000 </r>
       <r>    1.3960    0.0000 </r>
       <r>    1.4940    0.0000 </r>
       <r>    1.5181    0.0000 </r>
       <r>    1.5798    0.0000 </r>
       <r>    1.8130    0.0000 </r>
       <r>    2.0090    0.0000 </r>
      </set>
      <set comment="kpoint 3">
       <r>  -23.7467    1.0000 </r>
       <r>  -23.6365    1.0000 </r>
       <r>  -23.3357    1.0000 </r>
       <r>  -23.2241    1.0000 </r>
       <r>  -22.9958    1.0000 </r>
       <r>  -20.8813    1.0000 </r>
       <r>  -11.8291    1.0000 </r>
       <r>  -11.7250    1.0000 </r>
       <r>  -11.1906    1.0000 </r>
       <r>  -11.0723    1.0000 </r>
[...]
       <r>   -21.8772     0.0000    10.0000 </r>
       <r>   -21.7780     0.0000    10.0000 </r>
       <r>   -21.6787     0.0000    10.0000 </r>
       <r>   -21.5795     0.0000    10.0000 </r>
       <r>   -21.4803     0.0000    10.0000 </r>
       <r>   -21.3810     0.0000    10.0000 </r>
       <r>   -21.2818     0.0000    10.0000 </r>
       <r>   -21.1826     0.0000    10.0000 </r>
       <r>   -21.0834     0.0000    10.0000 </r>
       <r>   -20.9841     0.0000    10.0000 </r>
       <r>   -20.8849     0.0000    10.0000 </r>
       <r>   -20.7857     0.0000    12.0000 </r>
       <r>   -20.6864     0.0000    12.0000 </r>
       <r>   -20.5872     0.0000    12.0000 </r>
       <r>   -20.4880     0.0000    12.0000 </r>
       <r>   -20.3887     0.0000    12.0000 </r>
       <r>   -20.2895     0.0000    12.0000 </r>
       <r>   -20.1903     0.0000    12.0000 </r>
       <r>   -20.0911     0.0000    12.0000 </r>
       <r>   -19.9918     0.0000    12.0000 </r>
       <r>   -19.8926     0.0000    12.0000 </r>
       <r>   -19.7934     0.0000    12.0000 </r>
       <r>   -19.6941     0.0000    12.0000 </r>
       <r>   -19.5949     0.0000    12.0000 </r>
       <r>   -19.4957     0.0000    12.0000 </r>
       <r>   -19.3964     0.0000    12.0000 </r>
       <r>   -19.2972     0.0000    12.0000 </r>
       <r>   -19.1980     0.0000    12.0000 </r>
       <r>   -19.0988     0.0000    12.0000 </r>
       <r>   -18.9995     0.0000    12.0000 </r>
       <r>   -18.9003     0.0000    12.0000 </r>
       <r>   -18.8011     0.0000    12.0000 </r>
       <r>   -18.7018     0.0000    12.0000 </r>
       <r>   -18.6026     0.0000    12.0000 </r>
       <r>   -18.5034     0.0000    12.0000 </r>
       <r>   -18.4042     0.0000    12.0000 </r>
       <r>   -18.3049     0.0000    12.0000 </r>
       <r>   -18.2057     0.0000    12.0000 </r>
       <r>   -18.1065     0.0000    12.0000 </r>
       <r>   -18.0072     0.0000    12.0000 </r>
       <r>   -17.9080     0.0000    12.0000 </r>
       <r>   -17.8088     0.0000    12.0000 </r>
       <r>   -17.7095     0.0000    12.0000 </r>
       <r>   -17.6103     0.0000    12.0000 </r>
       <r>   -17.5111     0.0000    12.0000 </r>
       <r>   -17.4119     0.0000    12.0000 </r>
       <r>   -17.3126     0.0000    12.0000 </r>
       <r>   -17.2134     0.0000    12.0000 </r>
       <r>   -17.1142     0.0000    12.0000 </r>
       <r>   -17.0149     0.0000    12.0000 </r>
       <r>   -16.9157     0.0000    12.0000 </r>
       <r>   -16.8165     0.0000    12.0000 </r>
       <r>   -16.7172     0.0000    12.0000 </r>
       <r>   -16.6180     0.0000    12.0000 </r>
       <r>   -16.5188     0.0000    12.0000 </r>
       <r>   -16.4196     0.0000    12.0000 </r>
       <r>   -16.3203     0.0000    12.0000 </r>
       <r>   -16.2211     0.0000    12.0000 </r>
       <r>   -16.1219     0.0000    12.0000 </r>
       <r>   -16.0226     0.0000    12.0000 </r>
       <r>   -15.9234     0.0000    12.0000 </r>
       <r>   -15.8242     0.0000    12.0000 </r>
       <r>   -15.7249     0.0000    12.0000 </r>
       <r>   -15.6257     0.0000    12.0000 </r>
       <r>   -15.5265     0.0000    12.0000 </r>
       <r>   -15.4273     0.0000    12.0000 </r>
       <r>   -15.3280     0.0000    12.0000 </r>
       <r>   -15.2288     0.0000    12.0000 </r>
       <r>   -15.1296     0.0000    12.0000 </r>
       <r>   -15.0303     0.0000    12.0000 </r>
       <r>   -14.9311     0.0000    12.0000 </r>
       <r>   -14.8319     0.0000    12.0000 </r>
       <r>   -14.7326     0.0000    12.0000 </r>
       <r>   -14.6334     0.0000    12.0000 </r>
       <r>   -14.5342     0.0000    12.0000 </r>
       <r>   -14.4350     0.0000    12.0000 </r>
       <r>   -14.3357     0.0000    12.0000 </r>
       <r>   -14.2365     0.0000    12.0000 </r>
       <r>   -14.1373     0.0000    12.0000 </r>
       <r>   -14.0380     0.0000    12.0000 </r>
       <r>   -13.9388     0.0000    12.0000 </r>
       <r>   -13.8396     0.0000    12.0000 </r>
       <r>   -13.7403     0.0000    12.0000 </r>
       <r>   -13.6411     0.0000    12.0000 </r>
       <r>   -13.5419     0.0000    12.0000 </r>
       <r>   -13.4427     0.0000    12.0000 </r>
       <r>   -13.3434     0.0000    12.0000 </r>
       <r>   -13.2442     0.0000    12.0000 </r>
       <r>   -13.1450     0.0000    12.0000 </r>
       <r>   -13.0457     0.0000    12.0000 </r>
       <r>   -12.9465     0.0000    12.0000 </r>
       <r>   -12.8473     0.0000    12.0000 </r>
       <r>   -12.7481     0.0000    12.0000 </r>
       <r>   -12.6488     0.0000    12.0000 </r>
       <r>   -12.5496     0.0000    12.0000 </r>
       <r>   -12.4504     0.0000    12.0000 </r>
       <r>   -12.3511     0.0000    12.0000 </r>
       <r>   -12.2519     0.0000    12.0000 </r>
       <r>   -12.1527     0.0000    12.0000 </r>
       <r>   -12.0534     0.0000    12.0000 </r>
       <r>   -11.9542     0.0000    12.0000 </r>
       <r>   -11.8550     0.0000    12.0000 </r>
       <r>   -11.7558     0.0000    14.0000 </r>
       <r>   -11.6565     0.0000    16.0000 </r>
       <r>   -11.5573     0.0000    16.0000 </r>
       <r>   -11.4581     0.0000    16.0000 </r>
       <r>   -11.3588     0.0000    16.0000 </r>
       <r>   -11.2596     0.0000    16.0000 </r>
       <r>   -11.1604     0.0000    18.0000 </r>
       <r>   -11.0611    73.6406    18.6611 </r>
       <r>   -10.9619     0.0000    22.0000 </r>
       <r>   -10.8627     0.0000    22.0000 </r>
       <r>   -10.7635     0.0000    22.0000 </r>
       <r>   -10.6642     0.0000    22.0000 </r>
       <r>   -10.5650     0.0000    22.0000 </r>
       <r>   -10.4658     0.0000    22.0000 </r>
       <r>   -10.3665     0.0000    22.0000 </r>
       <r>   -10.2673     0.0000    22.0000 </r>
       <r>   -10.1681     0.0000    22.0000 </r>
       <r>   -10.0688     0.0000    22.0000 </r>
       <r>    -9.9696     0.0000    22.0000 </r>
       <r>    -9.8704     0.0000    22.0000 </r>
       <r>    -9.7712     0.0000    22.0000 </r>
       <r>    -9.6719     0.0000    22.0000 </r>
       <r>    -9.5727     0.0000    22.0000 </r>
       <r>    -9.4735     0.0000    22.0000 </r>
       <r>    -9.3742     0.0000    22.0000 </r>
       <r>    -9.2750     0.0000    22.0000 </r>
       <r>    -9.1758     0.0000    22.0000 </r>
       <r>    -9.0765     0.0000    22.0000 </r>
       <r>    -8.9773     0.0000    22.0000 </r>
       <r>    -8.8781     0.0000    22.0000 </r>
       <r>    -8.7789     0.0000    22.0000 </r>
       <r>    -8.6796    57.0867    22.0148 </r>
       <r>    -8.5804     0.0000    26.0000 </r>
       <r>    -8.4812     0.0000    26.0000 </r>
       <r>    -8.3819     0.0000    28.0000 </r>
       <r>    -8.2827     0.0000    28.0000 </r>
       <r>    -8.1835     0.0000    28.0000 </r>
       <r>    -8.0843     0.0000    30.0000 </r>
       <r>    -7.9850     0.0000    30.0000 </r>
       <r>    -7.8858     0.0000    30.0000 </r>
       <r>    -7.7866     0.0000    30.0000 </r>
       <r>    -7.6873   424.4342    32.4689 </r>
       <r>    -7.5881     0.0000    34.0000 </r>
       <r>    -7.4889     1.7178    34.0586 </r>
       <r>    -7.3896     4.2154    34.3530 </r>
       <r>    -7.2904     7.0903    34.9416 </r>
       <r>    -7.1912     4.7336    35.5283 </r>
       <r>    -7.0920     2.3769    35.8811 </r>
       <r>    -6.9927     4.7122    36.1730 </r>
       <r>    -6.8935    21.2100    37.4177 </r>
       <r>    -6.7943     1.6804    38.0178 </r>
       <r>    -6.6950     9.5691    38.5759 </r>
       <r>    -6.5958    11.2102    40.2699 </r>
       <r>    -6.4966     8.7388    41.4022 </r>
       <r>    -6.3973    16.3653    42.1301 </r>
       <r>    -6.2981    28.0935    44.3511 </r>
       <r>    -6.1989    15.2176    46.1589 </r>
       <r>    -6.0997     7.6026    47.6578 </r>
       <r>    -6.0004    14.1020    48.6441 </r>
       <r>    -5.9012    18.3839    50.3743 </r>
       <r>    -5.8020     9.6132    53.1291 </r>
       <r>    -5.7027     6.0234    55.1745 </r>
       <r>    -5.6035    10.2793    57.3194 </r>
       <r>    -5.5043    14.6611    59.1099 </r>
       <r>    -5.4050     2.6082    59.9642 </r>
       <r>    -5.3058    30.2944    61.2308 </r>
       <r>    -5.2066    10.6459    62.8518 </r>
       <r>    -5.1074     5.7485    63.6652 </r>
       <r>    -5.0081    15.0243    65.1848 </r>
       <r>    -4.9089     9.0431    66.0962 </r>
       <r>    -4.8097     9.8582    67.5486 </r>
       <r>    -4.7104     9.3637    68.4852 </r>
       <r>    -4.6112    14.1604    70.7869 </r>
       <r>    -4.5120    17.9868    73.3555 </r>
       <r>    -4.4127    15.1683    75.2718 </r>
       <r>    -4.3135    18.1112    76.8652 </r>
       <r>    -4.2143    10.4154    78.4440 </r>
       <r>    -4.1151     7.4345    80.2207 </r>
       <r>    -4.0158     8.3390    80.5737 </r>
       <r>    -3.9166    27.6659    82.2910 </r>
       <r>    -3.8174     5.2749    84.3682 </r>
       <r>    -3.7181    23.8197    85.3874 </r>
       <r>    -3.6189     5.6104    86.7940 </r>
       <r>    -3.5197     7.3154    87.5634 </r>
       <r>    -3.4204     6.5518    88.2397 </r>
       <r>    -3.3212     6.8250    88.9034 </r>
       <r>    -3.2220   103.5134    89.9224 </r>
       <r>    -3.1228    20.0237    92.2900 </r>
       <r>    -3.0235    25.3681    94.2204 </r>
       <r>    -2.9243    35.5125    97.5026 </r>
       <r>    -2.8251    18.9726   100.1702 </r>
       <r>    -2.7258     8.6278   101.4609 </r>
       <r>    -2.6266    24.0205   103.2330 </r>
       <r>    -2.5274    27.2987   104.6466 </r>
       <r>    -2.4282    17.9504   107.2321 </r>
       <r>    -2.3289     4.7679   108.9646 </r>
       <r>    -2.2297     3.6177   109.3807 </r>
       <r>    -2.1305     4.3352   111.0281 </r>
       <r>    -2.0312    10.2115   111.6433 </r>
       <r>    -1.9320    24.8066   113.3177 </r>
       <r>    -1.8328    33.2747   116.3618 </r>
       <r>    -1.7335    31.0650   119.3828 </r>
       <r>    -1.6343    24.2177   122.2030 </r>
       <r>    -1.5351    21.5879   124.4411 </r>
       <r>    -1.4359    15.9530   126.4895 </r>
       <r>    -1.3366    11.1797   127.7409 </r>
       <r>    -1.2374     9.2372   128.7409 </r>
       <r>    -1.1382    25.5122   130.0828 </r>
       <r>    -1.0389    28.1360   132.6216 </r>
       <r>    -0.9397    20.4478   135.1503 </r>
       <r>    -0.8405    10.6205   136.8824 </r>
       <r>    -0.7412    35.7031   140.1078 </r>
       <r>    -0.6420    16.6612   143.0476 </r>
       <r>    -0.5428     6.2322   144.4699 </r>
       <r>    -0.4436    11.9552   145.3722 </r>
       <r>    -0.3443     8.8171   147.1265 </r>
       <r>    -0.2451    20.4631   148.3492 </r>
       <r>    -0.1459    22.8859   150.4134 </r>
       <r>    -0.0466    35.2017   153.3042 </r>
       <r>     0.0526    38.0880   154.9447 </r>
       <r>     0.1518    28.3281   158.7044 </r>
       <r>     0.2511    17.6885   160.6195 </r>
       <r>     0.3503    72.7710   162.3413 </r>
       <r>     0.4495    16.0759   165.0056 </r>
       <r>     0.5487    23.0062   167.6481 </r>
       <r>     0.6480    28.1284   169.4403 </r>
       <r>     0.7472    11.8746   171.3833 </r>
       <r>     0.8464    28.9205   174.1270 </r>
       <r>     0.9457     9.4037   176.2991 </r>
       <r>     1.0449    26.3011   178.5603 </r>
       <r>     1.1441    20.2950   181.0933 </r>
       <r>     1.2434    85.4462   185.1206 </r>
       <r>     1.3426    36.9061   189.0788 </r>
       <r>     1.4418    25.2086   192.6168 </r>
       <r>     1.5410    43.7523   196.9143 </r>
       <r>     1.6403    13.9083   199.9104 </r>
       <r>     1.7395     7.8216   200.4829 </r>
       <r>     1.8387     1.9831   202.1892 </r>
       <r>     1.9380     3.0145   202.4372 </r>
       <r>     2.0372     0.0000   204.0000 </r>
       <r>     2.1364     0.0000   204.0000 </r>
       <r>     2.2356     0.0000   204.0000 </r>
       <r>     2.3349     0.0000   204.0000 </r>
       <r>     2.4341     0.0000   204.0000 </r>
       <r>     2.5333     0.0000   204.0000 </r>
       <r>     2.6326     0.0000   204.0000 </r>
       <r>     2.7318     0.0000   204.0000 </r>
       <r>     2.8310     0.0000   204.0000 </r>
       <r>     2.9303     0.0000   204.0000 </r>
       <r>     3.0295     0.0000   204.0000 </r>
       <r>     3.1287     0.0000   204.0000 </r>
       <r>     3.2279     0.0000   204.0000 </r>
       <r>     3.3272     0.0000   204.0000 </r>
       <r>     3.4264     0.0000   204.0000 </r>
       <r>     3.5256     0.0000   204.0000 </r>
       <r>     3.6249     0.0000   204.0000 </r>
       <r>     3.7241     0.0000   204.0000 </r>
       <r>     3.8233     0.0000   204.0000 </r>
       <r>     3.9226     0.0000   204.0000 </r>
       <r>     4.0218     0.0000   204.0000 </r>
      </set>
     </set>
    </array>
   </total>
  </dos>
 </calculation>
 <structure name="finalpos" >
  <crystal>
   <varray name="basis" >
    <v>       9.55575275       0.00000000       0.00000000 </v>
    <v>      -4.77787638       8.27552464       0.00000000 </v>
    <v>       0.00000000       0.00000000      32.62509537 </v>
   </varray>
   <i name="volume">   2579.95558872 </i>
   <varray name="rec_basis" >
    <v>       0.10464900       0.06041913       0.00000000 </v>
    <v>       0.00000000       0.12083826       0.00000000 </v>
    <v>       0.00000000       0.00000000       0.03065125 </v>
   </varray>
  </crystal>
  <varray name="positions" >
   <v>       0.00000000       0.00000000       0.00000000 </v>
   <v>       0.99707982       0.99828205       0.15824017 </v>
   <v>       0.99890872       0.00317084       0.33116994 </v>
   <v>       0.00000001       0.33333336       0.00000000 </v>
   <v>       0.99845875       0.33302844       0.15746069 </v>
   <v>       0.98720526       0.33092091       0.31086162 </v>
   <v>       0.00000002       0.66666672       0.00000000 </v>
   <v>       0.99697840       0.66516575       0.15783178 </v>
   <v>       0.99756958       0.67299252       0.31445419 </v>
   <v>       0.33333334       0.00000000       0.00000000 </v>
   <v>       0.33106684       0.99826024       0.15736023 </v>
   <v>       0.32413327       0.99802124       0.30938230 </v>
   <v>       0.33333335       0.33333336       0.00000000 </v>
   <v>       0.33066274       0.33093926       0.15685745 </v>
   <v>       0.31723080       0.32290135       0.31131598 </v>
   <v>       0.33333336       0.66666672       0.00000000 </v>
   <v>       0.33038992       0.66588661       0.15799198 </v>
   <v>       0.31314120       0.66843457       0.32968792 </v>
   <v>       0.66666668       0.00000000       0.00000000 </v>
   <v>       0.66485566       0.99733788       0.15775292 </v>
   <v>       0.66327200       0.00404376       0.31398838 </v>
   <v>       0.66666668       0.33333336       0.00000000 </v>
   <v>       0.66498465       0.33409806       0.15874075 </v>
   <v>       0.65750578       0.31955717       0.32624825 </v>
   <v>       0.66666670       0.66666672       0.00000000 </v>
   <v>       0.66723473       0.66624623       0.15892793 </v>
   <v>       0.65976087       0.67239319       0.32921256 </v>
   <v>       0.11111113       0.22222222       0.07982145 </v>
   <v>       0.10425316       0.21781824       0.23561370 </v>
   <v>       0.11111114       0.55555561       0.07982145 </v>
   <v>       0.11124166       0.55701266       0.23672088 </v>
   <v>       0.11111116       0.88888894       0.07982145 </v>
   <v>       0.10407612       0.88625816       0.23479584 </v>
   <v>       0.44444450       0.22222222       0.07982145 </v>
   <v>       0.44286725       0.22359304       0.23568008 </v>
   <v>       0.44444450       0.55555561       0.07982145 </v>
   <v>       0.44103177       0.55406453       0.23441343 </v>
   <v>       0.44444451       0.88888894       0.07982145 </v>
   <v>       0.44097596       0.88197814       0.23639114 </v>
   <v>       0.77777779       0.22222222       0.07982145 </v>
   <v>       0.77064418       0.21870975       0.23480486 </v>
   <v>       0.77777781       0.55555561       0.07982145 </v>
   <v>       0.76697690       0.54885593       0.24168631 </v>
   <v>       0.77777784       0.88888894       0.07982145 </v>
   <v>       0.77536278       0.88297513       0.24089283 </v>
   <v>       0.99652861       0.00833680       0.39628487 </v>
   <v>       0.27637679       0.96255537       0.41395276 </v>
   <v>       0.90641993       0.24000451       0.41412517 </v>
   <v>       0.62988022       0.35406059       0.38834152 </v>
   <v>       0.63156333       0.62362938       0.38912558 </v>
   <v>       0.34489359       0.67919712       0.39391517 </v>
   <v>       0.97494860       0.09104082       0.40858103 </v>
   <v>       0.08707848       0.00861829       0.41084859 </v>
   <v>       0.37512305       0.06819945       0.41142228 </v>
   <v>       0.24426436       0.93010020       0.38494652 </v>
   <v>       0.00219447       0.34758034       0.41148926 </v>
   <v>       0.85930869       0.21782124       0.38600228 </v>
   <v>       0.63164589       0.46500626       0.39260041 </v>
   <v>       0.70768708       0.35015436       0.40710154 </v>
   <v>       0.72365297       0.70173289       0.40527432 </v>
   <v>       0.42323341       0.54609672       0.32632407 </v>
   <v>       0.34444368       0.76922415       0.40842029 </v>
   <v>       0.44080263       0.67157856       0.40218986 </v>
  </varray>
  <varray name="selective"  type="logical" >
   <v type="logical" >  F  F  F </v>
   <v type="logical" >  T  T  T </v>
   <v type="logical" >  T  T  T </v>
   <v type="logical" >  F  F  F </v>
   <v type="logical" >  T  T  T </v>
   <v type="logical" >  T  T  T </v>
   <v type="logical" >  F  F  F </v>
   <v type="logical" >  T  T  T </v>
   <v type="logical" >  T  T  T </v>
   <v type="logical" >  F  F  F </v>
   <v type="logical" >  T  T  T </v>
   <v type="logical" >  T  T  T </v>
   <v type="logical" >  F  F  F </v>
   <v type="logical" >  T  T  T </v>
   <v type="logical" >  T  T  T </v>
   <v type="logical" >  F  F  F </v>
   <v type="logical" >  T  T  T </v>
   <v type="logical" >  T  T  T </v>
   <v type="logical" >  F  F  F </v>
   <v type="logical" >  T  T  T </v>
   <v type="logical" >  T  T  T </v>
   <v type="logical" >  F  F  F </v>
   <v type="logical" >  T  T  T </v>
   <v type="logical" >  T  T  T </v>
   <v type="logical" >  F  F  F </v>
   <v type="logical" >  T  T  T </v>
   <v type="logical" >  T  T  T </v>
   <v type="logical" >  F  F  F </v>
   <v type="logical" >  T  T  T </v>
   <v type="logical" >  F  F  F </v>
   <v type="logical" >  T  T  T </v>
   <v type="logical" >  F  F  F </v>
   <v type="logical" >  T  T  T </v>
   <v type="logical" >  F  F  F </v>
   <v type="logical" >  T  T  T </v>
   <v type="logical" >  F  F  F </v>
   <v type="logical" >  T  T  T </v>
   <v type="logical" >  F  F  F </v>
   <v type="logical" >  T  T  T </v>
   <v type="logical" >  F  F  F </v>
   <v type="logical" >  T  T  T </v>
   <v type="logical" >  F  F  F </v>
   <v type="logical" >  T  T  T </v>
   <v type="logical" >  F  F  F </v>
   <v type="logical" >  T  T  T </v>
   <v type="logical" >  T  T  T </v>
   <v type="logical" >  T  T  T </v>
   <v type="logical" >  T  T  T </v>
   <v type="logical" >  T  T  T </v>
   <v type="logical" >  T  T  T </v>
   <v type="logical" >  T  T  T </v>
   <v type="logical" >  T  T  T </v>
   <v type="logical" >  T  T  T </v>
   <v type="logical" >  T  T  T </v>
   <v type="logical" >  T  T  T </v>
   <v type="logical" >  T  T  T </v>
   <v type="logical" >  T  T  T </v>
   <v type="logical" >  T  T  T </v>
   <v type="logical" >  T  T  T </v>
   <v type="logical" >  T  T  T </v>
   <v type="logical" >  T  T  T </v>
   <v type="logical" >  T  T  T </v>
   <v type="logical" >  T  T  T </v>
  </varray>
  <nose>
   <v>      -3.00000000       0.00000000       0.00010000       0.00010000 </v>
  </nose>
 </structure>
</modeling>
