Mg_slab_in_a_box                        
           1
     9.555753    0.000000    0.000000
    -4.777876    8.275525    0.000000
     0.000000    0.000000   32.625095
   Mg   O    H 
  45   6  12
Direct configuration=     1
   0.00000000  0.00000000  0.00000000
   0.99707982  0.99828205  0.15824017
   0.99890872  0.00317084  0.33116994
   0.00000001  0.33333336  0.00000000
   0.99845875  0.33302844  0.15746069
   0.98720526  0.33092091  0.31086162
   0.00000002  0.66666672  0.00000000
   0.99697840  0.66516575  0.15783178
   0.99756958  0.67299252  0.31445419
   0.33333334  0.00000000  0.00000000
   0.33106684  0.99826024  0.15736023
   0.32413327  0.99802124  0.30938230
   0.33333335  0.33333336  0.00000000
   0.33066274  0.33093926  0.15685745
   0.31723080  0.32290135  0.31131598
   0.33333336  0.66666672  0.00000000
   0.33038992  0.66588661  0.15799198
   0.31314120  0.66843457  0.32968792
   0.66666668  0.00000000  0.00000000
   0.66485566  0.99733788  0.15775292
   0.66327200  0.00404376  0.31398838
   0.66666668  0.33333336  0.00000000
   0.66498465  0.33409806  0.15874075
   0.65750578  0.31955717  0.32624825
   0.66666670  0.66666672  0.00000000
   0.66723473  0.66624623  0.15892793
   0.65976087  0.67239319  0.32921256
   0.11111113  0.22222222  0.07982145
   0.10425316  0.21781824  0.23561370
   0.11111114  0.55555561  0.07982145
   0.11124166  0.55701266  0.23672088
   0.11111116  0.88888894  0.07982145
   0.10407612  0.88625816  0.23479584
   0.44444450  0.22222222  0.07982145
   0.44286725  0.22359304  0.23568008
   0.44444450  0.55555561  0.07982145
   0.44103177  0.55406453  0.23441343
   0.44444451  0.88888894  0.07982145
   0.44097596  0.88197814  0.23639114
   0.77777779  0.22222222  0.07982145
   0.77064418  0.21870975  0.23480486
   0.77777781  0.55555561  0.07982145
   0.76697690  0.54885593  0.24168631
   0.77777784  0.88888894  0.07982145
   0.77536278  0.88297513  0.24089283
   0.99652861  0.00833680  0.39628487
   0.27637679  0.96255537  0.41395276
   0.90641993  0.24000451  0.41412517
   0.62988022  0.35406059  0.38834152
   0.63156333  0.62362938  0.38912558
   0.34489359  0.67919712  0.39391517
   0.97494860  0.09104082  0.40858103
   0.08707848  0.00861829  0.41084859
   0.37512305  0.06819945  0.41142228
   0.24426436  0.93010020  0.38494652
   0.00219447  0.34758034  0.41148926
   0.85930869  0.21782124  0.38600228
   0.63164589  0.46500626  0.39260041
   0.70768708  0.35015436  0.40710154
   0.72365297  0.70173289  0.40527432
   0.42323341  0.54609672  0.32632407
   0.34444368  0.76922415  0.40842029
   0.44080263  0.67157856  0.40218986
