  63  63   0   0
  0.4095168E+02  0.9555753E-09  0.9555753E-09  0.3262510E-08  0.5000000E-15
  1.000000000000000E-004
  CAR 
 Mg_slab_in_a_box                        
      4.37546548    -26.04274760  301     -0.52067359      1.00000000
    -26.043  0.0000E+00  0.0000E+00
    -25.941  0.0000E+00  0.0000E+00
    -25.840  0.0000E+00  0.0000E+00
    -25.739  0.0000E+00  0.0000E+00
    -25.637  0.0000E+00  0.0000E+00
    -25.536  0.0000E+00  0.0000E+00
    -25.434  0.0000E+00  0.0000E+00
    -25.333  0.0000E+00  0.0000E+00
    -25.232  0.0000E+00  0.0000E+00
    -25.130  0.0000E+00  0.0000E+00
    -25.029  0.0000E+00  0.0000E+00
    -24.927  0.0000E+00  0.0000E+00
    -24.826  0.0000E+00  0.0000E+00
    -24.725  0.0000E+00  0.0000E+00
    -24.623  0.0000E+00  0.0000E+00
    -24.522  0.0000E+00  0.0000E+00
    -24.420  0.0000E+00  0.0000E+00
    -24.319  0.0000E+00  0.0000E+00
    -24.218  0.0000E+00  0.0000E+00
    -24.116  0.0000E+00  0.0000E+00
    -24.015  0.0000E+00  0.2000E+01
    -23.913  0.0000E+00  0.2000E+01
    -23.812  0.0000E+00  0.4000E+01
    -23.711  0.0000E+00  0.6000E+01
    -23.609  0.9528E+02  0.6451E+01
    -23.508  0.0000E+00  0.8000E+01
    -23.407  0.0000E+00  0.1000E+02
    -23.305  0.0000E+00  0.1200E+02
    -23.204  0.0000E+00  0.1200E+02
    -23.102  0.0000E+00  0.1200E+02
    -23.001  0.0000E+00  0.1200E+02
    -22.900  0.0000E+00  0.1200E+02
    -22.798  0.0000E+00  0.1200E+02
    -22.697  0.0000E+00  0.1200E+02
    -22.595  0.0000E+00  0.1200E+02
    -22.494  0.0000E+00  0.1200E+02
    -22.393  0.0000E+00  0.1200E+02
    -22.291  0.0000E+00  0.1200E+02
    -22.190  0.0000E+00  0.1200E+02
    -22.088  0.0000E+00  0.1200E+02
    -21.987  0.0000E+00  0.1200E+02
    -21.886  0.0000E+00  0.1200E+02
    -21.784  0.0000E+00  0.1200E+02
    -21.683  0.0000E+00  0.1200E+02
    -21.581  0.0000E+00  0.1200E+02
    -21.480  0.0000E+00  0.1200E+02
    -21.379  0.0000E+00  0.1200E+02
    -21.277  0.0000E+00  0.1200E+02
    -21.176  0.0000E+00  0.1200E+02
    -21.074  0.0000E+00  0.1200E+02
    -20.973  0.0000E+00  0.1200E+02
    -20.872  0.0000E+00  0.1200E+02
    -20.770  0.0000E+00  0.1200E+02
    -20.669  0.0000E+00  0.1200E+02
    -20.567  0.0000E+00  0.1200E+02
    -20.466  0.0000E+00  0.1200E+02
    -20.365  0.0000E+00  0.1200E+02
    -20.263  0.0000E+00  0.1200E+02
    -20.162  0.0000E+00  0.1200E+02
    -20.060  0.0000E+00  0.1200E+02
    -19.959  0.0000E+00  0.1200E+02
    -19.858  0.0000E+00  0.1200E+02
    -19.756  0.0000E+00  0.1200E+02
    -19.655  0.0000E+00  0.1200E+02
    -19.554  0.0000E+00  0.1200E+02
    -19.452  0.0000E+00  0.1200E+02
    -19.351  0.0000E+00  0.1200E+02
    -19.249  0.0000E+00  0.1200E+02
    -19.148  0.0000E+00  0.1200E+02
    -19.047  0.0000E+00  0.1200E+02
    -18.945  0.0000E+00  0.1200E+02
    -18.844  0.0000E+00  0.1200E+02
    -18.742  0.0000E+00  0.1200E+02
    -18.641  0.0000E+00  0.1200E+02
    -18.540  0.0000E+00  0.1200E+02
    -18.438  0.0000E+00  0.1200E+02
    -18.337  0.0000E+00  0.1200E+02
    -18.235  0.0000E+00  0.1200E+02
    -18.134  0.0000E+00  0.1200E+02
    -18.033  0.0000E+00  0.1200E+02
    -17.931  0.0000E+00  0.1200E+02
    -17.830  0.0000E+00  0.1200E+02
    -17.728  0.0000E+00  0.1200E+02
    -17.627  0.0000E+00  0.1200E+02
    -17.526  0.0000E+00  0.1200E+02
    -17.424  0.0000E+00  0.1200E+02
    -17.323  0.0000E+00  0.1200E+02
    -17.221  0.0000E+00  0.1200E+02
    -17.120  0.0000E+00  0.1200E+02
    -17.019  0.0000E+00  0.1200E+02
    -16.917  0.0000E+00  0.1200E+02
    -16.816  0.0000E+00  0.1200E+02
    -16.714  0.0000E+00  0.1200E+02
    -16.613  0.0000E+00  0.1200E+02
    -16.512  0.0000E+00  0.1200E+02
    -16.410  0.0000E+00  0.1200E+02
    -16.309  0.0000E+00  0.1200E+02
    -16.208  0.0000E+00  0.1200E+02
    -16.106  0.0000E+00  0.1200E+02
    -16.005  0.0000E+00  0.1200E+02
    -15.903  0.0000E+00  0.1200E+02
    -15.802  0.0000E+00  0.1200E+02
    -15.701  0.0000E+00  0.1200E+02
    -15.599  0.0000E+00  0.1200E+02
    -15.498  0.0000E+00  0.1200E+02
    -15.396  0.0000E+00  0.1200E+02
    -15.295  0.0000E+00  0.1200E+02
    -15.194  0.0000E+00  0.1200E+02
    -15.092  0.0000E+00  0.1200E+02
    -14.991  0.0000E+00  0.1200E+02
    -14.889  0.0000E+00  0.1200E+02
    -14.788  0.0000E+00  0.1200E+02
    -14.687  0.0000E+00  0.1200E+02
    -14.585  0.0000E+00  0.1200E+02
    -14.484  0.0000E+00  0.1200E+02
    -14.382  0.0000E+00  0.1200E+02
    -14.281  0.0000E+00  0.1200E+02
    -14.180  0.0000E+00  0.1200E+02
    -14.078  0.0000E+00  0.1200E+02
    -13.977  0.0000E+00  0.1200E+02
    -13.875  0.0000E+00  0.1200E+02
    -13.774  0.0000E+00  0.1200E+02
    -13.673  0.0000E+00  0.1200E+02
    -13.571  0.0000E+00  0.1200E+02
    -13.470  0.0000E+00  0.1200E+02
    -13.368  0.0000E+00  0.1200E+02
    -13.267  0.0000E+00  0.1200E+02
    -13.166  0.0000E+00  0.1200E+02
    -13.064  0.0000E+00  0.1200E+02
    -12.963  0.0000E+00  0.1200E+02
    -12.862  0.0000E+00  0.1200E+02
    -12.760  0.0000E+00  0.1200E+02
    -12.659  0.0000E+00  0.1200E+02
    -12.557  0.0000E+00  0.1200E+02
    -12.456  0.0000E+00  0.1200E+02
    -12.355  0.0000E+00  0.1200E+02
    -12.253  0.0000E+00  0.1200E+02
    -12.152  0.0000E+00  0.1200E+02
    -12.050  0.0000E+00  0.1400E+02
    -11.949  0.0000E+00  0.1400E+02
    -11.848  0.0000E+00  0.1600E+02
    -11.746  0.0000E+00  0.1800E+02
    -11.645  0.0000E+00  0.2000E+02
    -11.543  0.0000E+00  0.2000E+02
    -11.442  0.0000E+00  0.2000E+02
    -11.341  0.0000E+00  0.2000E+02
    -11.239  0.0000E+00  0.2000E+02
    -11.138  0.0000E+00  0.2000E+02
    -11.036  0.0000E+00  0.2200E+02
    -10.935  0.0000E+00  0.2400E+02
    -10.834  0.0000E+00  0.2400E+02
    -10.732  0.0000E+00  0.2400E+02
    -10.631  0.0000E+00  0.2400E+02
    -10.529  0.0000E+00  0.2400E+02
    -10.428  0.0000E+00  0.2400E+02
    -10.327  0.0000E+00  0.2400E+02
    -10.225  0.0000E+00  0.2400E+02
    -10.124  0.0000E+00  0.2400E+02
    -10.022  0.0000E+00  0.2400E+02
     -9.921  0.0000E+00  0.2400E+02
     -9.820  0.0000E+00  0.2400E+02
     -9.718  0.0000E+00  0.2400E+02
     -9.617  0.0000E+00  0.2400E+02
     -9.516  0.0000E+00  0.2400E+02
     -9.414  0.0000E+00  0.2400E+02
     -9.313  0.0000E+00  0.2400E+02
     -9.211  0.0000E+00  0.2400E+02
     -9.110  0.0000E+00  0.2400E+02
     -9.009  0.0000E+00  0.2400E+02
     -8.907  0.0000E+00  0.2400E+02
     -8.806  0.0000E+00  0.2400E+02
     -8.704  0.0000E+00  0.2600E+02
     -8.603  0.0000E+00  0.2800E+02
     -8.502  0.4413E+02  0.2988E+02
     -8.400  0.0000E+00  0.3000E+02
     -8.299  0.0000E+00  0.3000E+02
     -8.197  0.0000E+00  0.3200E+02
     -8.096  0.0000E+00  0.3200E+02
     -7.995  0.0000E+00  0.3200E+02
     -7.893  0.7642E+02  0.3449E+02
     -7.792  0.0000E+00  0.3600E+02
     -7.690  0.0000E+00  0.3600E+02
     -7.589  0.0000E+00  0.3600E+02
     -7.488  0.0000E+00  0.3600E+02
     -7.386  0.0000E+00  0.3600E+02
     -7.285  0.5585E+00  0.3601E+02
     -7.183  0.2950E+01  0.3618E+02
     -7.082  0.5342E+01  0.3660E+02
     -6.981  0.7345E+01  0.3761E+02
     -6.879  0.3813E+00  0.3800E+02
     -6.778  0.7113E+01  0.3938E+02
     -6.676  0.3376E+01  0.3989E+02
     -6.575  0.1946E+02  0.4045E+02
     -6.474  0.1481E+02  0.4404E+02
     -6.372  0.1763E+02  0.4513E+02
     -6.271  0.2080E+02  0.4934E+02
     -6.170  0.2666E+01  0.4968E+02
     -6.068  0.1554E+01  0.4989E+02
     -5.967  0.1564E+02  0.5011E+02
     -5.865  0.1580E+02  0.5370E+02
     -5.764  0.1987E+02  0.5551E+02
     -5.663  0.1738E+02  0.5730E+02
     -5.561  0.6801E+01  0.5862E+02
     -5.460  0.1294E+02  0.5982E+02
     -5.358  0.9013E+01  0.6094E+02
     -5.257  0.5083E+01  0.6165E+02
     -5.156  0.1178E+01  0.6197E+02
     -5.054  0.4787E+01  0.6414E+02
     -4.953  0.0000E+00  0.6600E+02
     -4.851  0.0000E+00  0.6600E+02
     -4.750  0.8945E+01  0.6691E+02
     -4.649  0.4534E+01  0.6759E+02
     -4.547  0.3883E+01  0.6793E+02
     -4.446  0.7715E+01  0.6851E+02
     -4.344  0.1167E+02  0.7095E+02
     -4.243  0.2100E+02  0.7261E+02
     -4.142  0.2247E+02  0.7456E+02
     -4.040  0.2012E+02  0.7683E+02
     -3.939  0.6150E+01  0.7817E+02
     -3.837  0.1326E+01  0.7842E+02
     -3.736  0.2185E+02  0.7955E+02
     -3.635  0.1422E+02  0.8296E+02
     -3.533  0.5370E+01  0.8443E+02
     -3.432  0.6477E+01  0.8508E+02
     -3.330  0.6325E+01  0.8573E+02
     -3.229  0.6172E+01  0.8636E+02
     -3.128  0.6020E+01  0.8698E+02
     -3.026  0.6961E+01  0.8761E+02
     -2.925  0.5310E+01  0.9088E+02
     -2.824  0.1044E+02  0.9178E+02
     -2.722  0.3691E+02  0.9462E+02
     -2.621  0.3145E+02  0.9854E+02
     -2.519  0.1465E+02  0.1008E+03
     -2.418  0.7234E+01  0.1018E+03
     -2.317  0.7438E+01  0.1025E+03
     -2.215  0.3208E+02  0.1058E+03
     -2.114  0.2769E+01  0.1074E+03
     -2.012  0.1297E+02  0.1084E+03
     -1.911  0.5351E+01  0.1093E+03
     -1.810  0.7395E+01  0.1097E+03
     -1.708  0.2437E+02  0.1113E+03
     -1.607  0.3306E+02  0.1145E+03
     -1.505  0.3591E+02  0.1179E+03
     -1.404  0.2779E+02  0.1214E+03
     -1.303  0.1562E+02  0.1236E+03
     -1.201  0.1502E+02  0.1249E+03
     -1.100  0.1185E+02  0.1275E+03
     -0.998  0.8271E+01  0.1285E+03
     -0.897  0.1433E+02  0.1295E+03
     -0.796  0.3812E+02  0.1320E+03
     -0.694  0.1461E+02  0.1348E+03
     -0.593  0.1089E+02  0.1359E+03
     -0.491  0.4546E+02  0.1397E+03
     -0.390  0.1948E+02  0.1427E+03
     -0.289  0.6557E+01  0.1443E+03
     -0.187  0.1862E+02  0.1454E+03
     -0.086  0.9923E+01  0.1473E+03
      0.016  0.1916E+02  0.1489E+03
      0.117  0.3130E+02  0.1503E+03
      0.218  0.4035E+02  0.1551E+03
      0.320  0.4718E+02  0.1562E+03
      0.421  0.6124E+01  0.1607E+03
      0.522  0.1515E+02  0.1617E+03
      0.624  0.1106E+02  0.1641E+03
      0.725  0.4217E+02  0.1673E+03
      0.827  0.2358E+02  0.1695E+03
      0.928  0.1782E+02  0.1716E+03
      1.029  0.3273E+02  0.1743E+03
      1.131  0.1952E+02  0.1771E+03
      1.232  0.3369E+02  0.1796E+03
      1.334  0.2103E+02  0.1816E+03
      1.435  0.2755E+02  0.1848E+03
      1.536  0.4173E+02  0.1881E+03
      1.638  0.5734E+02  0.1938E+03
      1.739  0.2711E+02  0.1984E+03
      1.841  0.1500E+02  0.2008E+03
      1.942  0.4561E+01  0.2015E+03
      2.043  0.4270E+01  0.2019E+03
      2.145  0.3980E+01  0.2023E+03
      2.246  0.5749E+01  0.2029E+03
      2.348  0.6386E+01  0.2039E+03
      2.449  0.0000E+00  0.2040E+03
      2.550  0.0000E+00  0.2040E+03
      2.652  0.0000E+00  0.2040E+03
      2.753  0.0000E+00  0.2040E+03
      2.855  0.0000E+00  0.2040E+03
      2.956  0.0000E+00  0.2040E+03
      3.057  0.0000E+00  0.2040E+03
      3.159  0.0000E+00  0.2040E+03
      3.260  0.0000E+00  0.2040E+03
      3.362  0.0000E+00  0.2040E+03
      3.463  0.0000E+00  0.2040E+03
      3.564  0.0000E+00  0.2040E+03
      3.666  0.0000E+00  0.2040E+03
      3.767  0.0000E+00  0.2040E+03
      3.868  0.0000E+00  0.2040E+03
      3.970  0.0000E+00  0.2040E+03
      4.071  0.0000E+00  0.2040E+03
      4.173  0.0000E+00  0.2040E+03
      4.274  0.0000E+00  0.2040E+03
      4.375  0.0000E+00  0.2040E+03
