       N       E                     dE             d eps       ncg     rms          rms(c)
RMM:   1     0.124545409840E+04    0.12455E+04   -0.27933E+04   510   0.785E+02
RMM:   2     0.547733846826E+03   -0.69772E+03   -0.75690E+03   510   0.166E+02
RMM:   3     0.312886277393E+03   -0.23485E+03   -0.29998E+03   510   0.832E+01
RMM:   4     0.137093957462E+03   -0.17579E+03   -0.15163E+03   510   0.785E+01
RMM:   5     0.198779039216E+02   -0.11722E+03   -0.94531E+02   510   0.637E+01
RMM:   6    -0.438630853015E+02   -0.63741E+02   -0.48570E+02   510   0.448E+01
RMM:   7    -0.690844733183E+02   -0.25221E+02   -0.19287E+02   510   0.254E+01
RMM:   8    -0.757150983392E+02   -0.66306E+01   -0.54998E+01   510   0.135E+01
RMM:   9    -0.778336247782E+02   -0.21185E+01   -0.20389E+01  1496   0.756E+00
RMM:  10    -0.781305166470E+02   -0.29689E+00   -0.30266E+00  1773   0.283E+00
RMM:  11    -0.781334371140E+02   -0.29205E-02   -0.16645E-01  1730   0.696E-01
RMM:  12    -0.781361382899E+02   -0.27012E-02   -0.33382E-02  1809   0.288E-01    0.194E+01
RMM:  13    -0.682370261349E+02    0.98991E+01   -0.55467E+01  1430   0.130E+01    0.746E+00
RMM:  14    -0.716736151012E+02   -0.34366E+01   -0.28727E+00  1485   0.281E+00    0.603E+00
RMM:  15    -0.694220413467E+02    0.22516E+01   -0.14389E+00  1486   0.103E+00    0.538E+00
RMM:  16    -0.677043480717E+02    0.17177E+01   -0.89578E-01  1446   0.195E+00    0.180E+00
RMM:  17    -0.676557877648E+02    0.48560E-01   -0.20613E-01  1361   0.981E-01    0.703E-01
RMM:  18    -0.676505245067E+02    0.52633E-02   -0.15736E-01  1608   0.753E-01    0.431E-01
RMM:  19    -0.676461357998E+02    0.43887E-02   -0.12282E-02  1508   0.235E-01    0.212E-01
RMM:  20    -0.676473877343E+02   -0.12519E-02   -0.12010E-02  1559   0.211E-01    0.778E-02
RMM:  21    -0.676454726974E+02    0.19150E-02   -0.11543E-03  1529   0.651E-02    0.370E-02
RMM:  22    -0.676393238221E+02    0.61489E-02   -0.98079E-04  1358   0.511E-02    0.514E-02
RMM:  23    -0.676361164970E+02    0.32073E-02   -0.63295E-04  1319   0.479E-02    0.234E-02
RMM:  24    -0.676361905664E+02   -0.74069E-04   -0.16545E-04  1186   0.251E-02    0.243E-02
RMM:  25    -0.676367132819E+02   -0.52272E-03   -0.23717E-04  1124   0.308E-02    0.113E-02
RMM:  26    -0.676365830915E+02    0.13019E-03   -0.10454E-04   979   0.153E-02    0.717E-03
RMM:  27    -0.676364244533E+02    0.15864E-03   -0.16087E-04  1052   0.176E-02    0.564E-03
RMM:  28    -0.676364232082E+02    0.12451E-05   -0.89291E-05   916   0.111E-02    0.100E-03
RMM:  29    -0.676364465120E+02   -0.23304E-04   -0.37213E-05   848   0.757E-03    0.163E-03
RMM:  30    -0.676364672470E+02   -0.20735E-04   -0.64584E-05   866   0.964E-03    0.760E-04
RMM:  31    -0.676364518653E+02    0.15382E-04   -0.21750E-05   832   0.632E-03    0.391E-04
RMM:  32    -0.676365061242E+02   -0.54259E-04   -0.10469E-05   800   0.666E-03    0.802E-04
RMM:  33    -0.676365196772E+02   -0.13553E-04   -0.10636E-05   771   0.499E-03    0.102E-03
RMM:  34    -0.677328828692E+02   -0.96363E-01   -0.24149E-05  1007   0.678E-03    0.211E-01
RMM:  35    -0.676363934059E+02    0.96489E-01   -0.53191E-05   792   0.106E-02    0.718E-04
RMM:  36    -0.676364698224E+02   -0.76417E-04   -0.19429E-05   859   0.703E-03    0.512E-04
RMM:  37    -0.676365147471E+02   -0.44925E-04   -0.31159E-05   944   0.722E-03    0.172E-04
RMM:  38    -0.676365431795E+02   -0.28432E-04   -0.88202E-05  1026   0.809E-03    0.724E-05
RMM:  39    -0.678993731880E+02   -0.26283E+00   -0.13467E+00   995   0.937E-02    0.490E-01
RMM:  40    -0.676363151337E+02    0.26306E+00   -0.53313E-04   806   0.181E-02    0.807E-04
RMM:  41    -0.676364543339E+02   -0.13920E-03   -0.39069E-05   865   0.990E-03    0.198E-04
RMM:  42    -0.676365356713E+02   -0.81337E-04   -0.27688E-05   951   0.714E-03    0.103E-04
RMM:  43    -0.676365593856E+02   -0.23714E-04   -0.12252E-05   905   0.493E-03    0.110E-04
RMM:  44    -0.676365593702E+02    0.15365E-07   -0.55955E-06   799   0.371E-03
   1 F= -.67636559E+02 E0= -.67636559E+02  d E =0.000000E+00
