 vasp.5.4.4.18Apr17-6-g9f103f2a35 (build Jun 08 2018 12:06:12) complex          
  
 executed on             LinuxIFC date 2019.06.06  06:48:14
 running on   72 total cores
 distrk:  each k-point on   72 cores,    1 groups
 distr:  one band on NCORES_PER_BAND=  24 cores,    3 groups


--------------------------------------------------------------------------------------------------------


 INCAR:
 POTCAR:    PAW_PBE Mg 13Apr2007                  
 POTCAR:    PAW_PBE O 08Apr2002                   
 POTCAR:    PAW_PBE H 15Jun2001                   

 ----------------------------------------------------------------------------- 
|                                                                             |
|           W    W    AA    RRRRR   N    N  II  N    N   GGGG   !!!           |
|           W    W   A  A   R    R  NN   N  II  NN   N  G    G  !!!           |
|           W    W  A    A  R    R  N N  N  II  N N  N  G       !!!           |
|           W WW W  AAAAAA  RRRRR   N  N N  II  N  N N  G  GGG   !            |
|           WW  WW  A    A  R   R   N   NN  II  N   NN  G    G                |
|           W    W  A    A  R    R  N    N  II  N    N   GGGG   !!!           |
|                                                                             |
|      For optimal performance we recommend to set                            |
|        NCORE= 4 - approx SQRT( number of cores)                             |
|      NCORE specifies how many cores store one orbital (NPAR=cpu/NCORE).     |
|      This setting can  greatly improve the performance of VASP for DFT.     |
|      The default,   NCORE=1            might be grossly inefficient         |
|      on modern multi-core architectures or massively parallel machines.     |
|      Do your own testing !!!!                                               |
|      Unfortunately you need to use the default for GW and RPA calculations. |
|      (for HF NCORE is supported but not extensively tested yet)             |
|                                                                             |
 ----------------------------------------------------------------------------- 


 ----------------------------------------------------------------------------- 
|                                                                             |
|  ADVICE TO THIS USER RUNNING 'VASP/VAMP'   (HEAR YOUR MASTER'S VOICE ...):  |
|                                                                             |
|      You have switched on vdW-DFT.                                          |
|      This routine was written and supplied by Jiri Klimes.                  |
|      We recommed that you carefully read and cite the following             |
|      publication                                                            |
|      J. Klimes, D.R. Bowler, A. Michelides                                  |
|        J. Phys.: Cond Matt. 22 022201 (2010)                                |
|      J. Klimes, D.R. Bowler, A. Michelides                                  |
|        Phys. Rev. B. 83, 195131 (2011)                                      |
|      and references therein.                                                |
|                                                                             |
 ----------------------------------------------------------------------------- 

 POTCAR:    PAW_PBE Mg 13Apr2007                  
   VRHFIN =Mg: s2p0                                                             
   LEXCH  = PE                                                                  
   EATOM  =    23.0369 eV,    1.6932 Ry                                         
                                                                                
   TITEL  = PAW_PBE Mg 13Apr2007                                                
   LULTRA =        F    use ultrasoft PP ?                                      
   IUNSCR =        1    unscreen: 0-lin 1-nonlin 2-no                           
   RPACOR =    1.500    partial core radius                                     
   POMASS =   24.305; ZVAL   =    2.000    mass and valenz                      
   RCORE  =    2.000    outmost cutoff radius                                   
   RWIGS  =    2.880; RWIGS  =    1.524    wigner-seitz radius (au A)           
   ENMAX  =  200.000; ENMIN  =  100.000 eV                                      
   RCLOC  =    1.506    cutoff for local pot                                    
   LCOR   =        T    correct aug charges                                     
   LPAW   =        T    paw PP                                                  
   EAUG   =  454.734                                                            
   DEXC   =    0.000                                                            
   RMAX   =    2.045    core radius for proj-oper                               
   RAUG   =    1.300    factor for augmentation sphere                          
   RDEP   =    2.025    radius for radial grids                                 
   RDEPT  =    1.942    core radius for aug-charge                              
                                                                                
   Atomic configuration                                                         
    6 entries                                                                   
     n  l   j            E        occ.                                          
     1  0  0.50     -1259.6230   2.0000                                         
     2  0  0.50       -79.8442   2.0000                                         
     2  1  1.50       -46.6121   6.0000                                         
     3  0  0.50        -4.7055   2.0000                                         
     3  1  0.50        -1.3660   0.0000                                         
     3  2  1.50        -1.3606   0.0000                                         
   Description                                                                  
     l       E           TYP  RCUT    TYP  RCUT                                 
     0     -4.7054661     23  2.000                                             
     0     27.2116520     23  2.000                                             
     1      1.3605826     23  2.000                                             
     1     27.2116520     23  2.000                                             
     2     -1.3605826     23  2.000                                             
  local pseudopotential read in
  partial core-charges read in
  partial kinetic energy density read in
  atomic valenz-charges read in
  non local Contribution for L=           0  read in
    real space projection operators read in
  non local Contribution for L=           0  read in
    real space projection operators read in
  non local Contribution for L=           1  read in
    real space projection operators read in
  non local Contribution for L=           1  read in
    real space projection operators read in
  non local Contribution for L=           2  read in
    real space projection operators read in
    PAW grid and wavefunctions read in
 
   number of l-projection  operators is LMAX  =           5
   number of lm-projection operators is LMMAX =          13
 
 POTCAR:    PAW_PBE O 08Apr2002                   
   VRHFIN =O: s2p4                                                              
   LEXCH  = PE                                                                  
   EATOM  =   432.3788 eV,   31.7789 Ry                                         
                                                                                
   TITEL  = PAW_PBE O 08Apr2002                                                 
   LULTRA =        F    use ultrasoft PP ?                                      
   IUNSCR =        1    unscreen: 0-lin 1-nonlin 2-no                           
   RPACOR =    1.200    partial core radius                                     
   POMASS =   16.000; ZVAL   =    6.000    mass and valenz                      
   RCORE  =    1.520    outmost cutoff radius                                   
   RWIGS  =    1.550; RWIGS  =    0.820    wigner-seitz radius (au A)           
   ENMAX  =  400.000; ENMIN  =  300.000 eV                                      
   ICORE  =        2    local potential                                         
   LCOR   =        T    correct aug charges                                     
   LPAW   =        T    paw PP                                                  
   EAUG   =  605.392                                                            
   DEXC   =    0.000                                                            
   RMAX   =    1.553    core radius for proj-oper                               
   RAUG   =    1.300    factor for augmentation sphere                          
   RDEP   =    1.550    radius for radial grids                                 
   RDEPT  =    1.329    core radius for aug-charge                              
                                                                                
   Atomic configuration                                                         
    4 entries                                                                   
     n  l   j            E        occ.                                          
     1  0  0.50      -514.6923   2.0000                                         
     2  0  0.50       -23.9615   2.0000                                         
     2  1  0.50        -9.0305   4.0000                                         
     3  2  1.50        -9.5241   0.0000                                         
   Description                                                                  
     l       E           TYP  RCUT    TYP  RCUT                                 
     0    -23.9615318     23  1.200                                             
     0     -9.5240782     23  1.200                                             
     1     -9.0304911     23  1.520                                             
     1      8.1634956     23  1.520                                             
     2     -9.5240782      7  1.500                                             
  local pseudopotential read in
  partial core-charges read in
  partial kinetic energy density read in
  kinetic energy density of atom read in
  atomic valenz-charges read in
  non local Contribution for L=           0  read in
    real space projection operators read in
  non local Contribution for L=           0  read in
    real space projection operators read in
  non local Contribution for L=           1  read in
    real space projection operators read in
  non local Contribution for L=           1  read in
    real space projection operators read in
    PAW grid and wavefunctions read in
 
   number of l-projection  operators is LMAX  =           4
   number of lm-projection operators is LMMAX =           8
 
 POTCAR:    PAW_PBE H 15Jun2001                   
   VRHFIN =H: ultrasoft test                                                    
   LEXCH  = PE                                                                  
   EATOM  =    12.4884 eV,    0.9179 Ry                                         
                                                                                
   TITEL  = PAW_PBE H 15Jun2001                                                 
   LULTRA =        F    use ultrasoft PP ?                                      
   IUNSCR =        0    unscreen: 0-lin 1-nonlin 2-no                           
   RPACOR =    0.000    partial core radius                                     
   POMASS =    1.000; ZVAL   =    1.000    mass and valenz                      
   RCORE  =    1.100    outmost cutoff radius                                   
   RWIGS  =    0.700; RWIGS  =    0.370    wigner-seitz radius (au A)           
   ENMAX  =  250.000; ENMIN  =  200.000 eV                                      
   RCLOC  =    0.701    cutoff for local pot                                    
   LCOR   =        T    correct aug charges                                     
   LPAW   =        T    paw PP                                                  
   EAUG   =  400.000                                                            
   RMAX   =    1.123    core radius for proj-oper                               
   RAUG   =    1.200    factor for augmentation sphere                          
   RDEP   =    1.112    radius for radial grids                                 
   RDEPT  =    0.926    core radius for aug-charge                              
                                                                                
   Atomic configuration                                                         
    2 entries                                                                   
     n  l   j            E        occ.                                          
     1  0  0.50        -6.4927   1.0000                                         
     2  1  0.50        -3.4015   0.0000                                         
   Description                                                                  
     l       E           TYP  RCUT    TYP  RCUT                                 
     0     -6.4927494     23  1.100                                             
     0      6.8029130     23  1.100                                             
     1     -4.0817478     23  1.100                                             
  local pseudopotential read in
  atomic valenz-charges read in
  non local Contribution for L=           0  read in
    real space projection operators read in
  non local Contribution for L=           0  read in
    real space projection operators read in
  non local Contribution for L=           1  read in
    real space projection operators read in
    PAW grid and wavefunctions read in
 
   number of l-projection  operators is LMAX  =           3
   number of lm-projection operators is LMMAX =           5
 
 Optimization of the real space projectors (new method)

 maximal supplied QI-value         = 18.90
 optimisation between [QCUT,QGAM] = [ 11.53, 23.24] = [ 37.21,151.29] Ry 
 Optimized for a Real-space Cutoff    1.28 Angstroem

   l    n(q)    QCUT    max X(q) W(low)/X(q) W(high)/X(q)  e(spline) 
   0      9    11.527    28.265    0.62E-04    0.53E-04    0.73E-07
   0      9    11.527    10.429    0.52E-04    0.40E-04    0.58E-07
   1      8    11.527    13.073    0.98E-04    0.18E-03    0.86E-07
   1      8    11.527     9.625    0.79E-04    0.15E-03    0.74E-07
   2      8    11.527     4.652    0.22E-03    0.72E-04    0.47E-07
 Optimization of the real space projectors (new method)

 maximal supplied QI-value         = 24.76
 optimisation between [QCUT,QGAM] = [ 11.64, 23.27] = [ 37.91,151.63] Ry 
 Optimized for a Real-space Cutoff    1.14 Angstroem

   l    n(q)    QCUT    max X(q) W(low)/X(q) W(high)/X(q)  e(spline) 
   0      8    11.635    20.381    0.10E-03    0.33E-03    0.24E-06
   0      8    11.635    15.268    0.11E-03    0.35E-03    0.26E-06
   1      7    11.635     5.964    0.24E-03    0.31E-03    0.30E-06
   1      7    11.635     5.382    0.22E-03    0.25E-03    0.26E-06
 Optimization of the real space projectors (new method)

 maximal supplied QI-value         = 34.20
 optimisation between [QCUT,QGAM] = [ 11.63, 23.26] = [ 37.87,151.49] Ry 
 Optimized for a Real-space Cutoff    1.21 Angstroem

   l    n(q)    QCUT    max X(q) W(low)/X(q) W(high)/X(q)  e(spline) 
   0      8    11.629    19.460    0.17E-03    0.34E-03    0.21E-06
   0      8    11.629    12.209    0.16E-03    0.33E-03    0.21E-06
   1      8    11.629     4.655    0.18E-03    0.16E-03    0.26E-06

 ----------------------------------------------------------------------------- 
|                                                                             |
|  ADVICE TO THIS USER RUNNING 'VASP/VAMP'   (HEAR YOUR MASTER'S VOICE ...):  |
|                                                                             |
|      You enforced a specific xc-type in the INCAR file,                     |
|      a different type was found on the POTCAR file                          |
|          I HOPE YOU KNOW, WHAT YOU ARE  DOING                               |
|                                                                             |
 ----------------------------------------------------------------------------- 

  PAW_PBE Mg 13Apr2007                  :
 energy of atom  1       EATOM=  -23.0369
 kinetic energy error for atom=    0.0000 (will be added to EATOM!!)
  PAW_PBE O 08Apr2002                   :
 energy of atom  2       EATOM= -432.3788
 kinetic energy error for atom=    0.0208 (will be added to EATOM!!)
  PAW_PBE H 15Jun2001                   :
 energy of atom  3       EATOM=  -12.4884
 kinetic energy error for atom=    0.0014 (will be added to EATOM!!)
 
 
 POSCAR: Mg   O    H                             
  positions in direct lattice
  velocities in cartesian coordinates
 exchange correlation table for  LEXCH =       42
   RHO(1)=    0.500       N(1)  =     2000
   RHO(2)=  100.500       N(2)  =     4000

 VTST: version 3.2, (02/03/18)

 CHAIN: initializing optimizer
 
 OPT: Using VASP Dynamics algorithm
 CHAIN: Read ICHAIN            0
 
 POSCAR: Mg   O    H                             
  positions in direct lattice
  velocities in cartesian coordinates
 


--------------------------------------------------------------------------------------------------------


 ion  position               nearest neighbor table
   1  0.000  0.000  0.000-   7 3.19  25 3.19  19 3.19  10 3.19   4 3.19  13 3.19  44 3.19  32 3.19
                            28 3.19
   2  0.998  0.999  0.158-  33 3.07  29 3.11  44 3.13  28 3.15  32 3.15  45 3.16  20 3.17   5 3.18
                            26 3.18  14 3.19   8 3.20  11 3.20
   3  0.997  1.000  0.328-  46 2.25  15 3.19  21 3.22   9 3.22  12 3.22  27 3.23   6 3.23  45 3.46
                            29 3.50  33 3.59
   4  0.000  0.333  0.000-  22 3.19  13 3.19  19 3.19  16 3.19   1 3.19   7 3.19  40 3.19  30 3.19
                            28 3.19
   5  0.999  0.332  0.157-  40 3.13  28 3.13  30 3.13  41 3.14  31 3.16  29 3.17   8 3.18   2 3.18
                            14 3.18  17 3.18  23 3.19  20 3.19
   6  0.997  0.332  0.310-  31 3.06  29 3.06  41 3.07  15 3.15  24 3.20   9 3.21  21 3.21  18 3.22
                             3 3.23
   7  0.000  0.667  0.000-   1 3.19  10 3.19  25 3.19  16 3.19  22 3.19   4 3.19  42 3.19  32 3.19
                            30 3.19
   8  0.998  0.664  0.157-  33 3.09  42 3.12  30 3.12  32 3.14  31 3.15  23 3.17   5 3.18  26 3.18
                            17 3.19   2 3.20  11 3.20  43 3.20
   9  1.000  0.668  0.312-  43 3.08  31 3.12  12 3.14  33 3.14  18 3.16  27 3.18   6 3.21   3 3.22
                            24 3.31
  10  0.333  0.000  0.000-  16 3.19   7 3.19  19 3.19   1 3.19  22 3.19  13 3.19  32 3.19  34 3.19
                            38 3.19
  11  0.333  0.999  0.157-  38 3.12  33 3.12  32 3.12  34 3.12  39 3.15  35 3.16  23 3.18  20 3.18
                            17 3.19  14 3.19   2 3.20   8 3.20
  12  0.326  0.998  0.308-  35 3.03  33 3.04  39 3.04   9 3.14  24 3.17  15 3.21   3 3.22  21 3.23
                            18 3.25
  13  0.333  0.333  0.000-  22 3.19   4 3.19  10 3.19   1 3.19  25 3.19  16 3.19  28 3.19  36 3.19
                            34 3.19
  14  0.333  0.333  0.157-  28 3.13  35 3.13  34 3.13  36 3.13  29 3.15  17 3.18  37 3.18   5 3.18
                            26 3.18  23 3.18  11 3.19   2 3.19
  15  0.326  0.333  0.314-  29 3.13  37 3.14   6 3.15   3 3.19  27 3.19  35 3.19  12 3.21  18 3.23
                            24 3.26
  16  0.333  0.667  0.000-  10 3.19  19 3.19   7 3.19  25 3.19   4 3.19  13 3.19  38 3.19  30 3.19
                            36 3.19
  17  0.332  0.665  0.158-  39 3.10  31 3.11  30 3.14  37 3.14  36 3.14  38 3.15  14 3.18   5 3.18
                            20 3.18  11 3.19   8 3.19  26 3.19
  18  0.323  0.664  0.330-  51 2.22   9 3.16   6 3.22  15 3.23  21 3.24  12 3.25  27 3.30  31 3.53
                            37 3.58  39 3.59
  19  0.667  0.000  0.000-  25 3.19  16 3.19   1 3.19  10 3.19   4 3.19  22 3.19  38 3.19  44 3.19
                            40 3.19
  20  0.666  0.998  0.157-  41 3.12  44 3.12  38 3.12  40 3.13  39 3.14   2 3.17  26 3.18  11 3.18
                            17 3.18   5 3.19  23 3.20  45 3.20
  21  0.662  0.994  0.313-  45 3.09  39 3.12  24 3.14  41 3.16  27 3.18   6 3.21   3 3.22  12 3.23
                            18 3.24
  22  0.667  0.333  0.000-  13 3.19   4 3.19  10 3.19  25 3.19   7 3.19  19 3.19  34 3.19  42 3.19
                            40 3.19
  23  0.666  0.333  0.158-  41 3.09  35 3.11  34 3.14  43 3.14  40 3.15  42 3.15   8 3.17  26 3.18
                            11 3.18  14 3.18   5 3.19  20 3.20
  24  0.659  0.319  0.323-  49 2.19  21 3.14  12 3.17   6 3.20  27 3.26  15 3.26   9 3.31  35 3.37
                            41 3.39  43 3.39
  25  0.667  0.667  0.000-   1 3.19  19 3.19   7 3.19  16 3.19  22 3.19  13 3.19  36 3.19  42 3.19
                            44 3.19
  26  0.666  0.666  0.158-  42 3.15  36 3.15  44 3.16  37 3.16  45 3.16  43 3.17   8 3.18  23 3.18
                             2 3.18  20 3.18  14 3.18  17 3.19
  27  0.664  0.662  0.316-  50 2.35  43 3.17   9 3.18  45 3.18  37 3.18  21 3.18  15 3.19   3 3.23
                            24 3.26  18 3.30
  28  0.111  0.222  0.080-   5 3.13  14 3.13   2 3.15  44 3.19  32 3.19  40 3.19  34 3.19  36 3.19
                            30 3.19   1 3.19  13 3.19   4 3.19
  29  0.110  0.217  0.236-   6 3.06   2 3.11  15 3.13  14 3.15  33 3.15  45 3.15   5 3.17  35 3.17
                            37 3.21  41 3.23  31 3.23   3 3.50
  30  0.111  0.556  0.080-   8 3.12   5 3.13  17 3.14  32 3.19  42 3.19  38 3.19  40 3.19  36 3.19
                            28 3.19  16 3.19   7 3.19   4 3.19
  31  0.114  0.557  0.236-   6 3.06  17 3.11   9 3.12  39 3.14  37 3.15   8 3.15   5 3.16  33 3.17
                            43 3.21  29 3.23  41 3.24  18 3.53
  32  0.111  0.889  0.080-  11 3.12   8 3.14   2 3.15  28 3.19  34 3.19  44 3.19  30 3.19  42 3.19
                            38 3.19  10 3.19   1 3.19   7 3.19
  33  0.107  0.886  0.233-  12 3.04   2 3.07   8 3.09  11 3.12  45 3.14   9 3.14  29 3.15  31 3.17
                            43 3.20  39 3.22  35 3.23   3 3.59
  34  0.444  0.222  0.080-  11 3.12  14 3.13  23 3.14  38 3.19  40 3.19  32 3.19  42 3.19  28 3.19
                            36 3.19  22 3.19  10 3.19  13 3.19
  35  0.445  0.225  0.235-  12 3.03  23 3.11  43 3.12  14 3.13  41 3.16  11 3.16  29 3.17  37 3.18
                            15 3.19  33 3.23  39 3.24  24 3.37
  36  0.444  0.556  0.080-  14 3.13  17 3.14  26 3.15  42 3.19  38 3.19  44 3.19  30 3.19  28 3.19
                            34 3.19  25 3.19  13 3.19  16 3.19
  37  0.442  0.556  0.237-  39 3.13  15 3.14  17 3.14  31 3.15  26 3.16  27 3.18  14 3.18  35 3.18
                            45 3.19  43 3.20  29 3.21  18 3.58
  38  0.444  0.889  0.080-  11 3.12  20 3.12  17 3.15  40 3.19  34 3.19  44 3.19  36 3.19  30 3.19
                            32 3.19  19 3.19  16 3.19  10 3.19
  39  0.443  0.884  0.235-  12 3.04  17 3.10  21 3.12  37 3.13  31 3.14  20 3.14  11 3.15  41 3.18
                            45 3.21  33 3.22  35 3.24  18 3.59
  40  0.778  0.222  0.080-   5 3.13  20 3.13  23 3.15  38 3.19  34 3.19  44 3.19  28 3.19  30 3.19
                            42 3.19   4 3.19  19 3.19  22 3.19
  41  0.773  0.219  0.235-   6 3.07  23 3.09  20 3.12   5 3.14  43 3.16  35 3.16  21 3.16  39 3.18
                            45 3.21  29 3.23  31 3.24  24 3.39
  42  0.778  0.556  0.080-   8 3.12  26 3.15  23 3.15  36 3.19  44 3.19  30 3.19  32 3.19  34 3.19
                            40 3.19  25 3.19   7 3.19  22 3.19
  43  0.774  0.550  0.237-   9 3.08  35 3.12  23 3.14  41 3.16  27 3.17  26 3.17  45 3.20  37 3.20
                            33 3.20   8 3.20  31 3.21  24 3.39
  44  0.778  0.889  0.080-  20 3.12   2 3.13  26 3.16  28 3.19  40 3.19  42 3.19  32 3.19  38 3.19
                            36 3.19   1 3.19  19 3.19  25 3.19
  45  0.780  0.887  0.237-  21 3.09  33 3.14  29 3.15   2 3.16  26 3.16  27 3.18  37 3.19  43 3.20
                            20 3.20  41 3.21  39 3.21   3 3.46
  46  0.971  0.987  0.396-  53 0.99  52 0.99   3 2.25
  47  0.264  0.966  0.412-  54 0.98  55 1.00
  48  0.893  0.242  0.410-  56 0.98  57 1.01
  49  0.648  0.327  0.390-  58 0.99  59 0.99  24 2.19
  50  0.660  0.630  0.388-  60 0.99  61 0.99  27 2.35
  51  0.290  0.688  0.396-  63 0.98  62 1.00  18 2.22
  52  0.956  0.075  0.408-  46 0.99
  53  0.064  0.991  0.410-  46 0.99
  54  0.368  0.067  0.414-  47 0.98
  55  0.242  0.959  0.381-  47 1.00
  56  0.995  0.346  0.408-  48 0.98
  57  0.865  0.212  0.381-  48 1.01
  58  0.666  0.434  0.398-  49 0.99
  59  0.731  0.310  0.404-  49 0.99
  60  0.726  0.739  0.399-  50 0.99
  61  0.545  0.602  0.388-  50 0.99
  62  0.287  0.786  0.405-  51 1.00
  63  0.349  0.666  0.417-  51 0.98
 
  LATTYP: Found a hexagonal cell.
 ALAT       =     9.5557527542
 C/A-ratio  =     3.4141837076
  
  Lattice vectors:
  
 A1 = (   9.5557527542,   0.0000000000,   0.0000000000)
 A2 = (  -4.7778763771,   8.2755246374,   0.0000000000)
 A3 = (   0.0000000000,   0.0000000000,  32.6250953674)


Analysis of symmetry for initial positions (statically):
=====================================================================
 Subroutine PRICEL returns:
 Original cell was already a primitive cell.
 

 Routine SETGRP: Setting up the symmetry group for a 
 hexagonal supercell.


 Subroutine GETGRP returns: Found  1 space group operations
 (whereof  1 operations were pure point group operations)
 out of a pool of 24 trial point group operations.


The static configuration has the point symmetry C_1 .


Analysis of symmetry for dynamics (positions and initial velocities):
=====================================================================
 Subroutine PRICEL returns:
 Original cell was already a primitive cell.
 

 Routine SETGRP: Setting up the symmetry group for a 
 hexagonal supercell.


 Subroutine GETGRP returns: Found  1 space group operations
 (whereof  1 operations were pure point group operations)
 out of a pool of 24 trial point group operations.


The dynamic configuration has the point symmetry C_1 .


Analysis of constrained symmetry for selective dynamics:
=====================================================================
 Subroutine PRICEL returns:
 Original cell was already a primitive cell.
 

 Routine SETGRP: Setting up the symmetry group for a 
 hexagonal supercell.


 Subroutine GETGRP returns: Found  1 space group operations
 (whereof  1 operations were pure point group operations)
 out of a pool of 24 trial point group operations.


The constrained configuration has the point symmetry C_1 .


 Subroutine INISYM returns: Found  1 space group operations
 (whereof  1 operations are pure point group operations),
 and found     1 'primitive' translations

 
 
 KPOINTS: Auto                                    

Automatic generation of k-mesh.
Space group operators:
 irot       det(A)        alpha          n_x          n_y          n_z        tau_x        tau_y        tau_z
    1     1.000000     0.000000     1.000000     0.000000     0.000000     0.000000     0.000000     0.000000
 
 Subroutine IBZKPT returns following result:
 ===========================================
 
 Found      5 irreducible k-points:
 
 Following reciprocal coordinates:
            Coordinates               Weight
  0.000000  0.000000  0.000000      1.000000
  0.333333 -0.000000  0.000000      2.000000
  0.000000  0.333333  0.000000      2.000000
  0.333333  0.333333  0.000000      2.000000
 -0.333333  0.333333  0.000000      2.000000
 
 Following cartesian coordinates:
            Coordinates               Weight
  0.000000  0.000000  0.000000      1.000000
  0.034883  0.020140  0.000000      2.000000
  0.000000  0.040279  0.000000      2.000000
  0.034883  0.060419  0.000000      2.000000
 -0.034883  0.020140  0.000000      2.000000
 
 TETIRR: Found     24 inequivalent tetrahedra from       54


--------------------------------------------------------------------------------------------------------




 Dimension of arrays:
   k-points           NKPTS =      5   k-points in BZ     NKDIM =      5   number of bands    NBANDS=    102
   number of dos      NEDOS =    301   number of ions     NIONS =     63
   non local maximal  LDIM  =      5   non local SUM 2l+1 LMDIM =     13
   total plane-waves  NPLWV = ******
   max r-space proj   IRMAX =   4509   max aug-charges    IRDMAX=  21536
   dimension x,y,z NGX =    72 NGY =   72 NGZ =  250
   dimension x,y,z NGXF=   144 NGYF=  144 NGZF=  500
   support grid    NGXF=   144 NGYF=  144 NGZF=  500
   ions per type =              45   6  12
   NGX,Y,Z   is equivalent  to a cutoff of  12.53, 12.53, 12.74 a.u.
   NGXF,Y,Z  is equivalent  to a cutoff of  25.05, 25.05, 25.48 a.u.

 SYSTEM =  Mg_slab_in_a_box                        
 POSCAR =  Mg   O    H                             

 Startparameter for this run:
   NWRITE =      2    write-flag & timer
   PREC   = accura    normal or accurate (medium, high low for compatibility)
   ISTART =      0    job   : 0-new  1-cont  2-samecut
   ICHARG =      2    charge: 1-file 2-atom 10-const
   ISPIN  =      1    spin polarized calculation?
   LNONCOLLINEAR =      F non collinear calculations
   LSORBIT =      F    spin-orbit coupling
   INIWAV =      1    electr: 0-lowe 1-rand  2-diag
   LASPH  =      T    aspherical Exc in radial PAW
   METAGGA=      F    non-selfconsistent MetaGGA calc.

 Electronic Relaxation 1
   ENCUT  =  520.0 eV  38.22 Ry    6.18 a.u.  17.77 17.77 60.66*2*pi/ulx,y,z
   ENINI  =  520.0     initial cutoff
   ENAUG  =  605.4 eV  augmentation charge cutoff
   NELM   =    300;   NELMIN=  6; NELMDL=-12     # of ELM steps 
   EDIFF  = 0.5E-05   stopping-criterion for ELM
   LREAL  =      T    real-space projection
   NLSPLINE    = F    spline interpolate recip. space projectors
   LCOMPAT=      F    compatible to vasp.4.4
   GGA_COMPAT  = T    GGA compatible to vasp.4.4-vasp.4.6
   LMAXPAW     = -100 max onsite density
   LMAXMIX     =    2 max onsite mixed and CHGCAR
   VOSKOWN=      0    Vosko Wilk Nusair interpolation
   ROPT   =   -0.00025  -0.00025  -0.00025
 Ionic relaxation
   EDIFFG = 0.5E-04   stopping-criterion for IOM
   NSW    =      0    number of steps for IOM
   NBLOCK =      1;   KBLOCK =      1    inner block; outer block 
   IBRION =     -1    ionic relax: 0-MD 1-quasi-New 2-CG
   NFREE  =      0    steps in history (QN), initial steepest desc. (CG)
   ISIF   =      2    stress and relaxation
   IWAVPR =     10    prediction:  0-non 1-charg 2-wave 3-comb
   ISYM   =      2    0-nonsym 1-usesym 2-fastsym
   LCORR  =      T    Harris-Foulkes like correction to forces

   POTIM  = 0.5000    time-step for ionic-motion
   TEIN   =    0.0    initial temperature
   TEBEG  =    0.0;   TEEND  =   0.0 temperature during run
   SMASS  =  -3.00    Nose mass-parameter (am)
   estimated Nose-frequenzy (Omega)   =  0.10E-29 period in steps =****** mass=  -0.209E-26a.u.
   SCALEE = 1.0000    scale energy and forces
   NPACO  =    256;   APACO  = 16.0  distance and # of slots for P.C.
   PSTRESS=    0.0 pullay stress

  Mass of Ions in am
   POMASS =  24.30 16.00  1.00
  Ionic Valenz
   ZVAL   =   2.00  6.00  1.00
  Atomic Wigner-Seitz radii
   RWIGS  =  -1.00 -1.00 -1.00
  virtual crystal weights 
   VCA    =   1.00  1.00  1.00
   NELECT =     138.0000    total number of electrons
   NUPDOWN=      -1.0000    fix difference up-down

 DOS related values:
   EMIN   =  10.00;   EMAX   =-10.00  energy-range for DOS
   EFERMI =   0.00
   ISMEAR =    -5;   SIGMA  =   0.20  broadening in eV -4-tet -1-fermi 0-gaus

 Electronic relaxation 2 (details)
   IALGO  =     48    algorithm
   LDIAG  =      T    sub-space diagonalisation (order eigenvalues)
   LSUBROT=      F    optimize rotation matrix (better conditioning)
   TURBO    =      0    0=normal 1=particle mesh
   IRESTART =      0    0=no restart 2=restart with 2 vectors
   NREBOOT  =      0    no. of reboots
   NMIN     =      0    reboot dimension
   EREF     =   0.00    reference energy to select bands
   IMIX   =      4    mixing-type and parameters
     AMIX     =   0.40;   BMIX     =  1.00
     AMIX_MAG =   1.60;   BMIX_MAG =  1.00
     AMIN     =   0.10
     WC   =   100.;   INIMIX=   1;  MIXPRE=   1;  MAXMIX= -45

 Intra band minimization:
   WEIMIN = 0.0000     energy-eigenvalue tresh-hold
   EBREAK =  0.12E-07  absolut break condition
   DEPER  =   0.30     relativ break condition  

   TIME   =   0.40     timestep for ELM

  volume/ion in A,a.u.               =      40.95       276.36
  Fermi-wavevector in a.u.,A,eV,Ry     =   0.616828  1.165635  5.176694  0.380476
  Thomas-Fermi vector in A             =   1.674695
 
 Write flags
   LWAVE        =      F    write WAVECAR
   LDOWNSAMPLE  =      F    k-point downsampling of WAVECAR
   LCHARG       =      T    write CHGCAR
   LVTOT        =      F    write LOCPOT, total local potential
   LVHAR        =      T    write LOCPOT, Hartree potential only
   LELF         =      F    write electronic localiz. function (ELF)
   LORBIT       =      0    0 simple, 1 ext, 2 COOP (PROOUT), +10 PAW based schemes


 Dipole corrections
   LMONO  =      F    monopole corrections only (constant potential shift)
   LDIPOL =      T    correct potential (dipole corrections)
   IDIPOL =      3    1-x, 2-y, 3-z, 4-all directions 
   EPSILON=  1.0000000 bulk dielectric constant

 Exchange correlation treatment:
   GGA     =    BO    GGA type
   LEXCH   =    42    internal setting for exchange type
   VOSKOWN=      0    Vosko Wilk Nusair interpolation
   LHFCALC =     F    Hartree Fock is set to
   LHFONE  =     F    Hartree Fock one center treatment
   AEXX    =    0.0000 exact exchange contribution

 vdW DFT:
   LUSE_VDW   =     T    switch on vdW DFT
   Zab_VDW    =-.8491    correlation parameter
   PARAM1     =0.1833
   PARAM2     =0.2200
   PARAM3     =0.0000
   -- rVV10 --
   BPARAM     = 6.3000
   CPARAM     = 0.0093

 Linear response parameters
   LEPSILON=     F    determine dielectric tensor
   LRPA    =     F    only Hartree local field effects (RPA)
   LNABLA  =     F    use nabla operator in PAW spheres
   LVEL    =     F    velocity operator in full k-point grid
   LINTERFAST=   F  fast interpolation
   KINTER  =     0    interpolate to denser k-point grid
   CSHIFT  =0.1000    complex shift for real part using Kramers Kronig
   OMEGAMAX=  -1.0    maximum frequency
   DEG_THRESHOLD= 0.2000000E-02 threshold for treating states as degnerate
   RTIME   =   -0.100 relaxation time in fs
  (WPLASMAI=    0.000 imaginary part of plasma frequency in eV, 0.658/RTIME)
   DFIELD  = 0.0000000 0.0000000 0.0000000 field for delta impulse in time
 
 Orbital magnetization related:
   ORBITALMAG=     F  switch on orbital magnetization
   LCHIMAG   =     F  perturbation theory with respect to B field
   DQ        =  0.001000  dq finite difference perturbation B field
   LLRAUG    =     F  two centre corrections for induced B field



--------------------------------------------------------------------------------------------------------


 Static calculation
 charge density and potential will be updated during run
 non-spin polarized calculation
 RMM-DIIS sequential band-by-band
 perform sub-space diagonalisation
    before iterative eigenvector-optimisation
 modified Broyden-mixing scheme, WC =      100.0
 initial mixing is a Kerker type mixing with AMIX =  0.4000 and BMIX =      1.0000
 Hartree-type preconditioning will be used
 using additional bands           33
 real space projection scheme for non local part
 use partial core corrections
 calculate Harris-corrections to forces 
   (improved forces if not selfconsistent)
 use gradient corrections 
 use of overlap-Matrix (Vanderbilt PP)
 Fermi weights with tetrahedron method with Bloechl corrections


--------------------------------------------------------------------------------------------------------


  energy-cutoff  :      520.00
  volume of cell :     2579.96
      direct lattice vectors                 reciprocal lattice vectors
     9.555752754  0.000000000  0.000000000     0.104649003  0.060419130  0.000000000
    -4.777876377  8.275524637  0.000000000     0.000000000  0.120838260  0.000000000
     0.000000000  0.000000000 32.625095367     0.000000000  0.000000000  0.030651251

  length of vectors
     9.555752754  9.555752754 32.625095367     0.120838260  0.120838260  0.030651251


 
 k-points in units of 2pi/SCALE and weight: Auto                                    
   0.00000000  0.00000000  0.00000000       0.111
   0.03488300  0.02013971  0.00000000       0.222
   0.00000000  0.04027942  0.00000000       0.222
   0.03488300  0.06041913  0.00000000       0.222
  -0.03488300  0.02013971  0.00000000       0.222
 
 k-points in reciprocal lattice and weights: Auto                                    
   0.00000000  0.00000000  0.00000000       0.111
   0.33333333 -0.00000000  0.00000000       0.222
   0.00000000  0.33333333  0.00000000       0.222
   0.33333333  0.33333333  0.00000000       0.222
  -0.33333333  0.33333333  0.00000000       0.222
 
 position of ions in fractional coordinates (direct lattice) 
   0.00000000  0.00000000  0.00000000
   0.99830249  0.99922910  0.15790636
   0.99741152  0.99976785  0.32774279
   0.00000001  0.33333336  0.00000000
   0.99942299  0.33244574  0.15737655
   0.99657928  0.33166981  0.30968373
   0.00000002  0.66666672  0.00000000
   0.99818061  0.66424594  0.15722206
   0.99955286  0.66846581  0.31226308
   0.33333334  0.00000000  0.00000000
   0.33334179  0.99933025  0.15704843
   0.32648762  0.99756284  0.30796161
   0.33333335  0.33333336  0.00000000
   0.33259991  0.33293487  0.15748591
   0.32608762  0.33270286  0.31436168
   0.33333336  0.66666672  0.00000000
   0.33242682  0.66541404  0.15807969
   0.32285261  0.66447536  0.32991366
   0.66666668  0.00000000  0.00000000
   0.66597728  0.99827020  0.15729750
   0.66198907  0.99428540  0.31296721
   0.66666668  0.33333336  0.00000000
   0.66577153  0.33272773  0.15812655
   0.65929455  0.31944746  0.32312549
   0.66666670  0.66666672  0.00000000
   0.66630662  0.66566954  0.15834909
   0.66436111  0.66239890  0.31624772
   0.11111113  0.22222222  0.07982145
   0.10970116  0.21710913  0.23571521
   0.11111114  0.55555561  0.07982145
   0.11361948  0.55743705  0.23559585
   0.11111116  0.88888894  0.07982145
   0.10697597  0.88618006  0.23337934
   0.44444450  0.22222222  0.07982145
   0.44525015  0.22464808  0.23527172
   0.44444450  0.55555561  0.07982145
   0.44244240  0.55624633  0.23677300
   0.44444451  0.88888894  0.07982145
   0.44282991  0.88439080  0.23504621
   0.77777779  0.22222222  0.07982145
   0.77301679  0.21914316  0.23467221
   0.77777781  0.55555561  0.07982145
   0.77380434  0.54979015  0.23723231
   0.77777784  0.88888894  0.07982145
   0.77960942  0.88719602  0.23729510
   0.97061073  0.98654628  0.39630710
   0.26393265  0.96626676  0.41162281
   0.89343467  0.24229880  0.41029123
   0.64837502  0.32655555  0.39005982
   0.66023678  0.62994303  0.38770149
   0.28978917  0.68826352  0.39628786
   0.95632014  0.07493833  0.40753420
   0.06442741  0.99088182  0.41026532
   0.36822918  0.06688464  0.41391063
   0.24188540  0.95905051  0.38135133
   0.99490645  0.34607389  0.40826263
   0.86514891  0.21168384  0.38066021
   0.66616621  0.43404337  0.39791275
   0.73138447  0.31037299  0.40388449
   0.72557006  0.73945170  0.39922875
   0.54539103  0.60216814  0.38800228
   0.28669482  0.78624365  0.40547842
   0.34872277  0.66560371  0.41729071
 
 position of ions in cartesian coordinates  (Angst):
   0.00000000  0.00000000  0.00000000
   4.76533866  8.26914505  5.15171020
   4.75425067  8.27360351 10.69263987
  -1.59262550  2.75850844  0.00000000
   7.96185433  2.75116289  5.13442502
   7.93838783  2.74474166 10.10346111
  -3.18525100  5.51701689  0.00000000
   6.36468213  5.49698363  5.12938454
   6.35763293  5.53190531 10.18761265
   3.18525100  0.00000000  0.00000000
  -1.58934466  8.26998212  5.12372012
  -1.64639695  8.25535583 10.04727691
   1.59262550  2.75850844  0.00000000
   1.58752084  2.75521071  5.13799276
   1.52639957  2.75329068 10.25607981
  -0.00000001  5.51701689  0.00000000
  -0.00267756  5.50665032  5.15736485
  -0.08968143  5.49888225 10.76346450
   6.37050200  0.00000000  0.00000000
   1.59430266  8.26120960  5.13184580
   1.57523111  8.22823336 10.21058507
   4.77787638  2.75850844  0.00000000
   4.77221617  2.75349650  5.15889367
   4.77377521  2.64359535 10.54199991
   3.18525100  5.51701689  0.00000000
   3.18657457  5.50876465  5.16615413
   3.18361046  5.48169839 10.31761191
   0.00000017  1.83900547  2.60418248
   0.01095660  1.79669197  7.69023107
  -1.59262550  4.59751415  2.60418248
  -1.57764566  4.61308407  7.68633698
  -3.18525076  7.35602236  2.60418248
  -3.21182282  7.33360494  7.61402330
   3.18525147  1.83900547  2.60418248
   3.18135963  1.85908073  7.67576246
   1.59262574  4.59751415  2.60418248
   1.57019403  4.60323020  7.72474182
   0.00000039  7.35602236  2.60418248
   0.00606322  7.31879783  7.66840497
   6.37050200  1.83900547  2.60418248
   6.33971844  1.81352460  7.65620335
   4.77787638  4.59751415  2.60418248
   4.76745360  4.54980193  7.73972660
   3.18525124  7.35602236  2.60418248
   3.21084194  7.34201249  7.74177532
   4.56132000  8.16418805 12.92955693
  -2.09462800  7.99636442 13.42923328
   7.37976708  2.00514970 13.38579055
   4.63546933  2.70241849 12.72573881
   3.29926950  5.21310904 12.64879801
  -0.51928432  5.69574170 12.92892924
   8.78031275  0.62015397 13.29584227
  -4.11865848  8.20006694 13.38494503
   3.19914046  0.55350552 13.50387375
  -2.27082769  7.93664614 12.44162339
   7.85358182  2.86394297 13.31960716
   7.25574985  1.75179486 12.41907576
   4.29191401  3.59193662 12.98194128
   5.50600539  2.56849930 13.17677007
   3.40035922  6.11935080 13.02487613
   2.33453689  4.98325731 12.65861144
  -1.01699020  6.50657871 13.22877227
   0.15213637  5.50821986 13.61414932
 


--------------------------------------------------------------------------------------------------------


 k-point  1 :   0.0000 0.0000 0.0000  plane waves:   69403
 k-point  2 :   0.3333-0.0000 0.0000  plane waves:   69509
 k-point  3 :   0.0000 0.3333 0.0000  plane waves:   69509
 k-point  4 :   0.3333 0.3333 0.0000  plane waves:   69474
 k-point  5 :  -0.3333 0.3333 0.0000  plane waves:   69509

 maximum and minimum number of plane-waves per node :      2924     2870

 maximum number of plane-waves:     69509
 maximum index in each direction: 
   IXMAX=   18   IYMAX=   17   IZMAX=   60
   IXMIN=  -18   IYMIN=  -18   IZMIN=  -60


 real space projection operators:
  total allocation   :      22587.89 KBytes
  max/ min on nodes  :       1304.29        525.68


 parallel 3D FFT for wavefunctions:
    minimum data exchange during FFTs selected (reduces bandwidth)
 parallel 3D FFT for charge:
    minimum data exchange during FFTs selected (reduces bandwidth)


 total amount of memory used by VASP MPI-rank0    62223. kBytes
=======================================================================

   base      :      30000. kBytes
   nonlr-proj:       6320. kBytes
   fftplans  :       6459. kBytes
   grid      :      11407. kBytes
   one-center:         24. kBytes
   wavefun   :       8013. kBytes
 
     INWAV:  cpu time    0.0001: real time    0.0002
 Broyden mixing: mesh for mixing (old mesh)
   NGX = 35   NGY = 35   NGZ =121
  (NGX  =144   NGY  =144   NGZ  =500)
  gives a total of 148225 points

 initial charge density was supplied:
 charge density of overlapping atoms calculated
 number of electron     138.0000000 magnetization 
 keeping initial charge density in first step


--------------------------------------------------------------------------------------------------------


 Maximum index for non-local projection operator          296
 Maximum index for augmentation-charges          837 (set IRDMAX)


--------------------------------------------------------------------------------------------------------


 First call to EWALD:  gamma=   0.129
 Maximum number of real-space cells 4x 4x 1
 Maximum number of reciprocal cells 2x 2x 6

    FEWALD:  cpu time    0.0040: real time    0.0040


--------------------------------------- Iteration      1(   1)  ---------------------------------------


vdW kernel read from vdw_kernel.bindat
  0.0000  0.2424  0.5071  0.7962  1.1119  1.4567  1.8333  2.2446  2.6937  3.1842
  3.7199  4.3049  4.9438  5.6415  6.4036  7.2358  8.1446  9.1372 10.2212 11.4050
 12.6979 14.1099 15.6519 17.3360 19.1751 21.1837 23.3773 25.7729 28.3892 31.2465
 34.3669 37.7748 41.4965 45.5611 50.0000
 
    POTLOK:  cpu time   10.0693: real time   10.1781
    SETDIJ:  cpu time    0.1373: real time    0.1376
    EDDIAG:  cpu time    2.6206: real time    2.6213
  RMM-DIIS:  cpu time    2.1926: real time    2.1929
    ORTHCH:  cpu time    0.9961: real time    0.9962
 BZINTS: Fermi energy:  9.572060;138.000000 electrons
         Band energy: 212.131806;  BLOECHL correction: -0.171572
       DOS:  cpu time    0.0052: real time    0.0052
    --------------------------------------------
      LOOP:  cpu time   16.0210: real time   16.1312

 eigenvalue-minimisations  :   510
 total energy-change (2. order) : 0.1245454E+04  (-0.2793262E+04)
 number of electron     138.0000000 magnetization 
 augmentation part      138.0000000 magnetization 

 DIPCOR: dipole corrections for dipol
 direction  3 min pos   355,
 dipolmoment           0.000000      0.000000     -0.000402 electrons x Angstroem
 Tr[quadrupol]     -1826.961600

 energy correction for charged system         0.000000 eV
 dipol+quadrupol energy correction           -0.000000 eV
 added-field ion interaction          0.004308 eV  (added to PSCEN)


 Free energy of the ion-electron system (eV)
  ---------------------------------------------------
  alpha Z        PSCENC =        63.16537127
  Ewald energy   TEWEN  =     12971.67047513
  -Hartree energ DENC   =    -16194.91097034
  -exchange      EXHF   =         0.00000000
  -V(xc)+E(xc)   XCENC  =     -2050.73592072
  PAW double counting   =      5135.15659847    -2719.01140655
  entropy T*S    EENTRO =         0.00000000
  eigenvalues    EBANDS =       212.13180602
  atomic energy  EATOM  =      3827.98814510
  Solvation  Ediel_sol  =         0.00000000
  ---------------------------------------------------
  free energy    TOTEN  =      1245.45409840 eV

  energy without entropy =     1245.45409840  energy(sigma->0) =     1245.45409840


--------------------------------------------------------------------------------------------------------




--------------------------------------- Iteration      1(   2)  ---------------------------------------


    EDDIAG:  cpu time    2.7048: real time    2.7291
  RMM-DIIS:  cpu time    2.1309: real time    2.1312
    ORTHCH:  cpu time    0.7195: real time    0.7196
 BZINTS: Fermi energy:  2.095004;138.000000 electrons
         Band energy:-485.588446;  BLOECHL correction: -0.204066
       DOS:  cpu time    0.0045: real time    0.0045
    --------------------------------------------
      LOOP:  cpu time    5.5597: real time    5.5844

 eigenvalue-minimisations  :   510
 total energy-change (2. order) :-0.6977203E+03  (-0.7568972E+03)
 number of electron     138.0000000 magnetization 
 augmentation part      138.0000000 magnetization 

 DIPCOR: dipole corrections for dipol
 direction  3 min pos   355,
 dipolmoment           0.000000      0.000000     -0.000402 electrons x Angstroem
 Tr[quadrupol]     -1826.961600

 energy correction for charged system         0.000000 eV
 dipol+quadrupol energy correction           -0.000000 eV
 added-field ion interaction          0.004308 eV  (added to PSCEN)


 Free energy of the ion-electron system (eV)
  ---------------------------------------------------
  alpha Z        PSCENC =        63.16537127
  Ewald energy   TEWEN  =     12971.67047513
  -Hartree energ DENC   =    -16194.91097034
  -exchange      EXHF   =         0.00000000
  -V(xc)+E(xc)   XCENC  =     -2050.73592072
  PAW double counting   =      5135.15659847    -2719.01140655
  entropy T*S    EENTRO =         0.00000000
  eigenvalues    EBANDS =      -485.58844555
  atomic energy  EATOM  =      3827.98814510
  Solvation  Ediel_sol  =         0.00000000
  ---------------------------------------------------
  free energy    TOTEN  =       547.73384683 eV

  energy without entropy =      547.73384683  energy(sigma->0) =      547.73384683


--------------------------------------------------------------------------------------------------------




--------------------------------------- Iteration      1(   3)  ---------------------------------------


    EDDIAG:  cpu time    1.3011: real time    1.3250
  RMM-DIIS:  cpu time    1.3336: real time    1.3338
    ORTHCH:  cpu time    0.4084: real time    0.4084
 BZINTS: Fermi energy:  0.386684;138.000000 electrons
         Band energy:-720.436015;  BLOECHL correction: -0.543630
       DOS:  cpu time    0.0036: real time    0.0036
    --------------------------------------------
      LOOP:  cpu time    3.0467: real time    3.0708

 eigenvalue-minimisations  :   510
 total energy-change (2. order) :-0.2348476E+03  (-0.2999810E+03)
 number of electron     138.0000000 magnetization 
 augmentation part      138.0000000 magnetization 

 DIPCOR: dipole corrections for dipol
 direction  3 min pos   355,
 dipolmoment           0.000000      0.000000     -0.000402 electrons x Angstroem
 Tr[quadrupol]     -1826.961600

 energy correction for charged system         0.000000 eV
 dipol+quadrupol energy correction           -0.000000 eV
 added-field ion interaction          0.004308 eV  (added to PSCEN)


 Free energy of the ion-electron system (eV)
  ---------------------------------------------------
  alpha Z        PSCENC =        63.16537127
  Ewald energy   TEWEN  =     12971.67047513
  -Hartree energ DENC   =    -16194.91097034
  -exchange      EXHF   =         0.00000000
  -V(xc)+E(xc)   XCENC  =     -2050.73592072
  PAW double counting   =      5135.15659847    -2719.01140655
  entropy T*S    EENTRO =         0.00000000
  eigenvalues    EBANDS =      -720.43601499
  atomic energy  EATOM  =      3827.98814510
  Solvation  Ediel_sol  =         0.00000000
  ---------------------------------------------------
  free energy    TOTEN  =       312.88627739 eV

  energy without entropy =      312.88627739  energy(sigma->0) =      312.88627739


--------------------------------------------------------------------------------------------------------




--------------------------------------- Iteration      1(   4)  ---------------------------------------


    EDDIAG:  cpu time    1.3772: real time    1.3999
  RMM-DIIS:  cpu time    1.6416: real time    1.6418
    ORTHCH:  cpu time    0.5560: real time    0.5560
 BZINTS: Fermi energy: -0.756816;138.000000 electrons
         Band energy:-896.228335;  BLOECHL correction: -0.153488
       DOS:  cpu time    0.0088: real time    0.0088
    --------------------------------------------
      LOOP:  cpu time    3.5835: real time    3.6065

 eigenvalue-minimisations  :   510
 total energy-change (2. order) :-0.1757923E+03  (-0.1516253E+03)
 number of electron     138.0000000 magnetization 
 augmentation part      138.0000000 magnetization 

 DIPCOR: dipole corrections for dipol
 direction  3 min pos   355,
 dipolmoment           0.000000      0.000000     -0.000402 electrons x Angstroem
 Tr[quadrupol]     -1826.961600

 energy correction for charged system         0.000000 eV
 dipol+quadrupol energy correction           -0.000000 eV
 added-field ion interaction          0.004308 eV  (added to PSCEN)


 Free energy of the ion-electron system (eV)
  ---------------------------------------------------
  alpha Z        PSCENC =        63.16537127
  Ewald energy   TEWEN  =     12971.67047513
  -Hartree energ DENC   =    -16194.91097034
  -exchange      EXHF   =         0.00000000
  -V(xc)+E(xc)   XCENC  =     -2050.73592072
  PAW double counting   =      5135.15659847    -2719.01140655
  entropy T*S    EENTRO =         0.00000000
  eigenvalues    EBANDS =      -896.22833492
  atomic energy  EATOM  =      3827.98814510
  Solvation  Ediel_sol  =         0.00000000
  ---------------------------------------------------
  free energy    TOTEN  =       137.09395746 eV

  energy without entropy =      137.09395746  energy(sigma->0) =      137.09395746


--------------------------------------------------------------------------------------------------------




--------------------------------------- Iteration      1(   5)  ---------------------------------------


    EDDIAG:  cpu time    1.5952: real time    1.6178
  RMM-DIIS:  cpu time    1.4226: real time    1.4228
    ORTHCH:  cpu time    0.4608: real time    0.4608
 BZINTS: Fermi energy: -1.247919;138.000000 electrons
         Band energy:***********;  BLOECHL correction: -0.062578
       DOS:  cpu time    0.0043: real time    0.0043
    --------------------------------------------
      LOOP:  cpu time    3.4828: real time    3.5057

 eigenvalue-minimisations  :   510
 total energy-change (2. order) :-0.1172161E+03  (-0.9453141E+02)
 number of electron     138.0000000 magnetization 
 augmentation part      138.0000000 magnetization 

 DIPCOR: dipole corrections for dipol
 direction  3 min pos   355,
 dipolmoment           0.000000      0.000000     -0.000402 electrons x Angstroem
 Tr[quadrupol]     -1826.961600

 energy correction for charged system         0.000000 eV
 dipol+quadrupol energy correction           -0.000000 eV
 added-field ion interaction          0.004308 eV  (added to PSCEN)


 Free energy of the ion-electron system (eV)
  ---------------------------------------------------
  alpha Z        PSCENC =        63.16537127
  Ewald energy   TEWEN  =     12971.67047513
  -Hartree energ DENC   =    -16194.91097034
  -exchange      EXHF   =         0.00000000
  -V(xc)+E(xc)   XCENC  =     -2050.73592072
  PAW double counting   =      5135.15659847    -2719.01140655
  entropy T*S    EENTRO =         0.00000000
  eigenvalues    EBANDS =     -1013.44438846
  atomic energy  EATOM  =      3827.98814510
  Solvation  Ediel_sol  =         0.00000000
  ---------------------------------------------------
  free energy    TOTEN  =        19.87790392 eV

  energy without entropy =       19.87790392  energy(sigma->0) =       19.87790392


--------------------------------------------------------------------------------------------------------




--------------------------------------- Iteration      1(   6)  ---------------------------------------


    EDDIAG:  cpu time    1.4251: real time    1.4462
  RMM-DIIS:  cpu time    1.4571: real time    1.4573
    ORTHCH:  cpu time    0.4401: real time    0.4402
 BZINTS: Fermi energy: -1.359576;138.000000 electrons
         Band energy:***********;  BLOECHL correction: -0.055180
       DOS:  cpu time    0.0054: real time    0.0054
    --------------------------------------------
      LOOP:  cpu time    3.3277: real time    3.3491

 eigenvalue-minimisations  :   510
 total energy-change (2. order) :-0.6374099E+02  (-0.4856963E+02)
 number of electron     138.0000000 magnetization 
 augmentation part      138.0000000 magnetization 

 DIPCOR: dipole corrections for dipol
 direction  3 min pos   355,
 dipolmoment           0.000000      0.000000     -0.000402 electrons x Angstroem
 Tr[quadrupol]     -1826.961600

 energy correction for charged system         0.000000 eV
 dipol+quadrupol energy correction           -0.000000 eV
 added-field ion interaction          0.004308 eV  (added to PSCEN)


 Free energy of the ion-electron system (eV)
  ---------------------------------------------------
  alpha Z        PSCENC =        63.16537127
  Ewald energy   TEWEN  =     12971.67047513
  -Hartree energ DENC   =    -16194.91097034
  -exchange      EXHF   =         0.00000000
  -V(xc)+E(xc)   XCENC  =     -2050.73592072
  PAW double counting   =      5135.15659847    -2719.01140655
  entropy T*S    EENTRO =         0.00000000
  eigenvalues    EBANDS =     -1077.18537768
  atomic energy  EATOM  =      3827.98814510
  Solvation  Ediel_sol  =         0.00000000
  ---------------------------------------------------
  free energy    TOTEN  =       -43.86308530 eV

  energy without entropy =      -43.86308530  energy(sigma->0) =      -43.86308530


--------------------------------------------------------------------------------------------------------




--------------------------------------- Iteration      1(   7)  ---------------------------------------


    EDDIAG:  cpu time    1.4915: real time    1.5132
  RMM-DIIS:  cpu time    1.2366: real time    1.2367
    ORTHCH:  cpu time    0.3754: real time    0.3755
 BZINTS: Fermi energy: -1.417881;138.000000 electrons
         Band energy:***********;  BLOECHL correction: -0.065822
       DOS:  cpu time    0.0032: real time    0.0031
    --------------------------------------------
      LOOP:  cpu time    3.1066: real time    3.1286

 eigenvalue-minimisations  :   510
 total energy-change (2. order) :-0.2522139E+02  (-0.1928689E+02)
 number of electron     138.0000000 magnetization 
 augmentation part      138.0000000 magnetization 

 DIPCOR: dipole corrections for dipol
 direction  3 min pos   355,
 dipolmoment           0.000000      0.000000     -0.000402 electrons x Angstroem
 Tr[quadrupol]     -1826.961600

 energy correction for charged system         0.000000 eV
 dipol+quadrupol energy correction           -0.000000 eV
 added-field ion interaction          0.004308 eV  (added to PSCEN)


 Free energy of the ion-electron system (eV)
  ---------------------------------------------------
  alpha Z        PSCENC =        63.16537127
  Ewald energy   TEWEN  =     12971.67047513
  -Hartree energ DENC   =    -16194.91097034
  -exchange      EXHF   =         0.00000000
  -V(xc)+E(xc)   XCENC  =     -2050.73592072
  PAW double counting   =      5135.15659847    -2719.01140655
  entropy T*S    EENTRO =         0.00000000
  eigenvalues    EBANDS =     -1102.40676570
  atomic energy  EATOM  =      3827.98814510
  Solvation  Ediel_sol  =         0.00000000
  ---------------------------------------------------
  free energy    TOTEN  =       -69.08447332 eV

  energy without entropy =      -69.08447332  energy(sigma->0) =      -69.08447332


--------------------------------------------------------------------------------------------------------




--------------------------------------- Iteration      1(   8)  ---------------------------------------


    EDDIAG:  cpu time    1.9212: real time    1.9475
  RMM-DIIS:  cpu time    2.1270: real time    2.1272
    ORTHCH:  cpu time    1.0498: real time    1.0500
 BZINTS: Fermi energy: -1.448815;138.000000 electrons
         Band energy:***********;  BLOECHL correction: -0.084579
       DOS:  cpu time    0.0040: real time    0.0040
    --------------------------------------------
      LOOP:  cpu time    5.1020: real time    5.1287

 eigenvalue-minimisations  :   510
 total energy-change (2. order) :-0.6630625E+01  (-0.5499784E+01)
 number of electron     138.0000000 magnetization 
 augmentation part      138.0000000 magnetization 

 DIPCOR: dipole corrections for dipol
 direction  3 min pos   355,
 dipolmoment           0.000000      0.000000     -0.000402 electrons x Angstroem
 Tr[quadrupol]     -1826.961600

 energy correction for charged system         0.000000 eV
 dipol+quadrupol energy correction           -0.000000 eV
 added-field ion interaction          0.004308 eV  (added to PSCEN)


 Free energy of the ion-electron system (eV)
  ---------------------------------------------------
  alpha Z        PSCENC =        63.16537127
  Ewald energy   TEWEN  =     12971.67047513
  -Hartree energ DENC   =    -16194.91097034
  -exchange      EXHF   =         0.00000000
  -V(xc)+E(xc)   XCENC  =     -2050.73592072
  PAW double counting   =      5135.15659847    -2719.01140655
  entropy T*S    EENTRO =         0.00000000
  eigenvalues    EBANDS =     -1109.03739072
  atomic energy  EATOM  =      3827.98814510
  Solvation  Ediel_sol  =         0.00000000
  ---------------------------------------------------
  free energy    TOTEN  =       -75.71509834 eV

  energy without entropy =      -75.71509834  energy(sigma->0) =      -75.71509834


--------------------------------------------------------------------------------------------------------




--------------------------------------- Iteration      1(   9)  ---------------------------------------


    EDDIAG:  cpu time    2.7135: real time    2.7305
  RMM-DIIS:  cpu time    5.2522: real time    5.2529
    ORTHCH:  cpu time    0.9910: real time    0.9911
 BZINTS: Fermi energy: -1.481225;138.000000 electrons
         Band energy:***********;  BLOECHL correction: -0.086486
       DOS:  cpu time    0.0084: real time    0.0084
    --------------------------------------------
      LOOP:  cpu time    8.9650: real time    8.9829

 eigenvalue-minimisations  :  1496
 total energy-change (2. order) :-0.2118526E+01  (-0.2038867E+01)
 number of electron     138.0000000 magnetization 
 augmentation part      138.0000000 magnetization 

 DIPCOR: dipole corrections for dipol
 direction  3 min pos   355,
 dipolmoment           0.000000      0.000000     -0.000402 electrons x Angstroem
 Tr[quadrupol]     -1826.961600

 energy correction for charged system         0.000000 eV
 dipol+quadrupol energy correction           -0.000000 eV
 added-field ion interaction          0.004308 eV  (added to PSCEN)


 Free energy of the ion-electron system (eV)
  ---------------------------------------------------
  alpha Z        PSCENC =        63.16537127
  Ewald energy   TEWEN  =     12971.67047513
  -Hartree energ DENC   =    -16194.91097034
  -exchange      EXHF   =         0.00000000
  -V(xc)+E(xc)   XCENC  =     -2050.73592072
  PAW double counting   =      5135.15659847    -2719.01140655
  entropy T*S    EENTRO =         0.00000000
  eigenvalues    EBANDS =     -1111.15591716
  atomic energy  EATOM  =      3827.98814510
  Solvation  Ediel_sol  =         0.00000000
  ---------------------------------------------------
  free energy    TOTEN  =       -77.83362478 eV

  energy without entropy =      -77.83362478  energy(sigma->0) =      -77.83362478


--------------------------------------------------------------------------------------------------------




--------------------------------------- Iteration      1(  10)  ---------------------------------------


    EDDIAG:  cpu time    2.6699: real time    2.6916
  RMM-DIIS:  cpu time    6.0686: real time    6.0693
    ORTHCH:  cpu time    1.0639: real time    1.0640
 BZINTS: Fermi energy: -1.483030;138.000000 electrons
         Band energy:***********;  BLOECHL correction: -0.086000
       DOS:  cpu time    0.0069: real time    0.0069
    --------------------------------------------
      LOOP:  cpu time    9.8091: real time    9.8318

 eigenvalue-minimisations  :  1773
 total energy-change (2. order) :-0.2968919E+00  (-0.3026611E+00)
 number of electron     138.0000000 magnetization 
 augmentation part      138.0000000 magnetization 

 DIPCOR: dipole corrections for dipol
 direction  3 min pos   355,
 dipolmoment           0.000000      0.000000     -0.000402 electrons x Angstroem
 Tr[quadrupol]     -1826.961600

 energy correction for charged system         0.000000 eV
 dipol+quadrupol energy correction           -0.000000 eV
 added-field ion interaction          0.004308 eV  (added to PSCEN)


 Free energy of the ion-electron system (eV)
  ---------------------------------------------------
  alpha Z        PSCENC =        63.16537127
  Ewald energy   TEWEN  =     12971.67047513
  -Hartree energ DENC   =    -16194.91097034
  -exchange      EXHF   =         0.00000000
  -V(xc)+E(xc)   XCENC  =     -2050.73592072
  PAW double counting   =      5135.15659847    -2719.01140655
  entropy T*S    EENTRO =         0.00000000
  eigenvalues    EBANDS =     -1111.45280902
  atomic energy  EATOM  =      3827.98814510
  Solvation  Ediel_sol  =         0.00000000
  ---------------------------------------------------
  free energy    TOTEN  =       -78.13051665 eV

  energy without entropy =      -78.13051665  energy(sigma->0) =      -78.13051665


--------------------------------------------------------------------------------------------------------




--------------------------------------- Iteration      1(  11)  ---------------------------------------


    EDDIAG:  cpu time    2.6404: real time    2.6622
  RMM-DIIS:  cpu time    5.9636: real time    5.9643
    ORTHCH:  cpu time    0.9962: real time    0.9963
 BZINTS: Fermi energy: -1.483368;138.000000 electrons
         Band energy:***********;  BLOECHL correction: -0.085950
       DOS:  cpu time    0.0111: real time    0.0111
    --------------------------------------------
      LOOP:  cpu time    9.6112: real time    9.6339

 eigenvalue-minimisations  :  1730
 total energy-change (2. order) :-0.2920467E-02  (-0.1664538E-01)
 number of electron     138.0000000 magnetization 
 augmentation part      138.0000000 magnetization 

 DIPCOR: dipole corrections for dipol
 direction  3 min pos   355,
 dipolmoment           0.000000      0.000000     -0.000402 electrons x Angstroem
 Tr[quadrupol]     -1826.961600

 energy correction for charged system         0.000000 eV
 dipol+quadrupol energy correction           -0.000000 eV
 added-field ion interaction          0.004308 eV  (added to PSCEN)


 Free energy of the ion-electron system (eV)
  ---------------------------------------------------
  alpha Z        PSCENC =        63.16537127
  Ewald energy   TEWEN  =     12971.67047513
  -Hartree energ DENC   =    -16194.91097034
  -exchange      EXHF   =         0.00000000
  -V(xc)+E(xc)   XCENC  =     -2050.73592072
  PAW double counting   =      5135.15659847    -2719.01140655
  entropy T*S    EENTRO =         0.00000000
  eigenvalues    EBANDS =     -1111.45572949
  atomic energy  EATOM  =      3827.98814510
  Solvation  Ediel_sol  =         0.00000000
  ---------------------------------------------------
  free energy    TOTEN  =       -78.13343711 eV

  energy without entropy =      -78.13343711  energy(sigma->0) =      -78.13343711


--------------------------------------------------------------------------------------------------------




--------------------------------------- Iteration      1(  12)  ---------------------------------------


    EDDIAG:  cpu time    2.6918: real time    2.7155
  RMM-DIIS:  cpu time    6.1802: real time    6.1810
    ORTHCH:  cpu time    0.5603: real time    0.5603
 BZINTS: Fermi energy: -1.483399;138.000000 electrons
         Band energy:***********;  BLOECHL correction: -0.085957
       DOS:  cpu time    0.0049: real time    0.0049
    CHARGE:  cpu time    0.2567: real time    0.2568
    MIXING:  cpu time    0.0036: real time    0.0036
    --------------------------------------------
      LOOP:  cpu time    9.6975: real time    9.7222

 eigenvalue-minimisations  :  1809
 total energy-change (2. order) :-0.2701176E-02  (-0.3338235E-02)
 number of electron     138.0000001 magnetization 
 augmentation part        5.1976481 magnetization 

 DIPCOR: dipole corrections for dipol
 direction  3 min pos   355,
 dipolmoment           0.000000      0.000000     -0.000402 electrons x Angstroem
 Tr[quadrupol]     -1826.961600

 energy correction for charged system         0.000000 eV
 dipol+quadrupol energy correction           -0.000000 eV
 added-field ion interaction          0.004308 eV  (added to PSCEN)


 Broyden mixing:
  rms(total) = 0.19352E+01    rms(broyden)= 0.19340E+01
  rms(prec ) = 0.20304E+01
  weight for this iteration     100.00

 Free energy of the ion-electron system (eV)
  ---------------------------------------------------
  alpha Z        PSCENC =        63.16537127
  Ewald energy   TEWEN  =     12971.67047513
  -Hartree energ DENC   =    -16194.91097034
  -exchange      EXHF   =         0.00000000
  -V(xc)+E(xc)   XCENC  =     -2050.73592072
  PAW double counting   =      5135.15659847    -2719.01140655
  entropy T*S    EENTRO =         0.00000000
  eigenvalues    EBANDS =     -1111.45843067
  atomic energy  EATOM  =      3827.98814510
  Solvation  Ediel_sol  =         0.00000000
  ---------------------------------------------------
  free energy    TOTEN  =       -78.13613829 eV

  energy without entropy =      -78.13613829  energy(sigma->0) =      -78.13613829


--------------------------------------------------------------------------------------------------------




--------------------------------------- Iteration      1(  13)  ---------------------------------------


    POTLOK:  cpu time    7.0644: real time    7.0829
    SETDIJ:  cpu time    0.1356: real time    0.1356
    EDDIAG:  cpu time    1.3986: real time    1.3990
  RMM-DIIS:  cpu time    3.3774: real time    3.3779
    ORTHCH:  cpu time    0.4591: real time    0.4591
 BZINTS: Fermi energy: -0.973778;138.000000 electrons
         Band energy:-939.160384;  BLOECHL correction: -0.079101
       DOS:  cpu time    0.0034: real time    0.0034
    CHARGE:  cpu time    0.2906: real time    0.2907
    MIXING:  cpu time    0.0046: real time    0.0046
    --------------------------------------------
      LOOP:  cpu time   12.7338: real time   12.7533

 eigenvalue-minimisations  :  1430
 total energy-change (2. order) : 0.9899112E+01  (-0.5546742E+01)
 number of electron     138.0000001 magnetization 
 augmentation part        4.4818515 magnetization 

 DIPCOR: dipole corrections for dipol
 direction  3 min pos   361,
 dipolmoment           0.000000      0.000000      0.101191 electrons x Angstroem
 Tr[quadrupol]     -1839.066850

 energy correction for charged system         0.000000 eV
 dipol+quadrupol energy correction           -0.000359 eV
 added-field ion interaction         -0.702168 eV  (added to PSCEN)


 Broyden mixing:
  rms(total) = 0.74613E+00    rms(broyden)= 0.74565E+00
  rms(prec ) = 0.80040E+00
  weight for this iteration     100.00

 eigenvalues of (default mixing * dielectric matrix)
  average eigenvalue GAMMA=   0.9731
  0.9731

 Free energy of the ion-electron system (eV)
  ---------------------------------------------------
  alpha Z        PSCENC =        62.45853609
  Ewald energy   TEWEN  =     12971.67047513
  -Hartree energ DENC   =    -16363.47295349
  -exchange      EXHF   =         0.00000000
  -V(xc)+E(xc)   XCENC  =     -2041.38004666
  PAW double counting   =      5559.00493462    -3145.34573280
  entropy T*S    EENTRO =         0.00000000
  eigenvalues    EBANDS =      -939.16038413
  atomic energy  EATOM  =      3827.98814510
  Solvation  Ediel_sol  =         0.00000000
  ---------------------------------------------------
  free energy    TOTEN  =       -68.23702613 eV

  energy without entropy =      -68.23702613  energy(sigma->0) =      -68.23702613


--------------------------------------------------------------------------------------------------------




--------------------------------------- Iteration      1(  14)  ---------------------------------------


    POTLOK:  cpu time    7.2681: real time    7.2870
    SETDIJ:  cpu time    0.1476: real time    0.1476
    EDDIAG:  cpu time    1.9803: real time    1.9808
  RMM-DIIS:  cpu time    5.2555: real time    5.2562
    ORTHCH:  cpu time    1.0300: real time    1.0301
 BZINTS: Fermi energy: -0.802475;138.000000 electrons
         Band energy:-951.838813;  BLOECHL correction: -0.187543
       DOS:  cpu time    0.0060: real time    0.0060
    CHARGE:  cpu time    0.4888: real time    0.4888
    MIXING:  cpu time    0.0049: real time    0.0049
    --------------------------------------------
      LOOP:  cpu time   16.1811: real time   16.2014

 eigenvalue-minimisations  :  1485
 total energy-change (2. order) :-0.3436589E+01  (-0.2872657E+00)
 number of electron     138.0000001 magnetization 
 augmentation part        4.4055783 magnetization 

 DIPCOR: dipole corrections for dipol
 direction  3 min pos   376,
 dipolmoment           0.000000      0.000000     -0.972256 electrons x Angstroem
 Tr[quadrupol]     -1832.810741

 energy correction for charged system         0.000000 eV
 dipol+quadrupol energy correction           -0.033150 eV
 added-field ion interaction         -2.463995 eV  (added to PSCEN)


 Broyden mixing:
  rms(total) = 0.60296E+00    rms(broyden)= 0.60292E+00
  rms(prec ) = 0.13024E+01
  weight for this iteration     100.00

 eigenvalues of (default mixing * dielectric matrix)
  average eigenvalue GAMMA=   1.1939
  1.1939  1.1939

 Free energy of the ion-electron system (eV)
  ---------------------------------------------------
  alpha Z        PSCENC =        60.66391816
  Ewald energy   TEWEN  =     12971.67047513
  -Hartree energ DENC   =    -16354.54871565
  -exchange      EXHF   =         0.00000000
  -V(xc)+E(xc)   XCENC  =     -2039.20615852
  PAW double counting   =      5741.15559578    -3327.55806228
  entropy T*S    EENTRO =         0.00000000
  eigenvalues    EBANDS =      -951.83881284
  atomic energy  EATOM  =      3827.98814510
  Solvation  Ediel_sol  =         0.00000000
  ---------------------------------------------------
  free energy    TOTEN  =       -71.67361510 eV

  energy without entropy =      -71.67361510  energy(sigma->0) =      -71.67361510


--------------------------------------------------------------------------------------------------------




--------------------------------------- Iteration      1(  15)  ---------------------------------------


    POTLOK:  cpu time    9.7860: real time    9.8104
    SETDIJ:  cpu time    0.1366: real time    0.1366
    EDDIAG:  cpu time    2.6750: real time    2.6756
  RMM-DIIS:  cpu time    5.1253: real time    5.1260
    ORTHCH:  cpu time    1.0399: real time    1.0400
 BZINTS: Fermi energy: -1.038573;138.000000 electrons
         Band energy:-917.771050;  BLOECHL correction: -0.152402
       DOS:  cpu time    0.0033: real time    0.0033
    CHARGE:  cpu time    0.4996: real time    0.4997
    MIXING:  cpu time    0.0043: real time    0.0043
    --------------------------------------------
      LOOP:  cpu time   19.2700: real time   19.2959

 eigenvalue-minimisations  :  1486
 total energy-change (2. order) : 0.2251574E+01  (-0.1438946E+00)
 number of electron     138.0000001 magnetization 
 augmentation part        4.3495771 magnetization 

 DIPCOR: dipole corrections for dipol
 direction  3 min pos   385,
 dipolmoment           0.000000      0.000000      0.215449 electrons x Angstroem
 Tr[quadrupol]     -1840.649532

 energy correction for charged system         0.000000 eV
 dipol+quadrupol energy correction           -0.001628 eV
 added-field ion interaction          1.770633 eV  (added to PSCEN)


 Broyden mixing:
  rms(total) = 0.53792E+00    rms(broyden)= 0.53790E+00
  rms(prec ) = 0.93692E+00
  weight for this iteration     100.00

 eigenvalues of (default mixing * dielectric matrix)
  average eigenvalue GAMMA=   1.1428
  2.1152  1.1739  0.1392

 Free energy of the ion-electron system (eV)
  ---------------------------------------------------
  alpha Z        PSCENC =        64.93006860
  Ewald energy   TEWEN  =     12971.67047513
  -Hartree energ DENC   =    -16390.97064034
  -exchange      EXHF   =         0.00000000
  -V(xc)+E(xc)   XCENC  =     -2038.88721421
  PAW double counting   =      5769.55755638    -3355.93938192
  entropy T*S    EENTRO =         0.00000000
  eigenvalues    EBANDS =      -917.77105010
  atomic energy  EATOM  =      3827.98814510
  Solvation  Ediel_sol  =         0.00000000
  ---------------------------------------------------
  free energy    TOTEN  =       -69.42204135 eV

  energy without entropy =      -69.42204135  energy(sigma->0) =      -69.42204135


--------------------------------------------------------------------------------------------------------




--------------------------------------- Iteration      1(  16)  ---------------------------------------


    POTLOK:  cpu time    9.7354: real time    9.7596
    SETDIJ:  cpu time    0.1362: real time    0.1364
    EDDIAG:  cpu time    2.7092: real time    2.7097
  RMM-DIIS:  cpu time    3.7494: real time    3.7499
    ORTHCH:  cpu time    0.3679: real time    0.3679
 BZINTS: Fermi energy: -0.703151;138.000000 electrons
         Band energy:-906.301148;  BLOECHL correction: -0.099522
       DOS:  cpu time    0.0034: real time    0.0034
    CHARGE:  cpu time    0.2452: real time    0.2452
    MIXING:  cpu time    0.0043: real time    0.0043
    --------------------------------------------
      LOOP:  cpu time   16.9509: real time   16.9764

 eigenvalue-minimisations  :  1446
 total energy-change (2. order) : 0.1717693E+01  (-0.8957768E-01)
 number of electron     138.0000001 magnetization 
 augmentation part        4.4349913 magnetization 

 DIPCOR: dipole corrections for dipol
 direction  3 min pos   389,
 dipolmoment           0.000000      0.000000     -0.349792 electrons x Angstroem
 Tr[quadrupol]     -1841.788273

 energy correction for charged system         0.000000 eV
 dipol+quadrupol energy correction           -0.004291 eV
 added-field ion interaction         -3.758364 eV  (added to PSCEN)


 Broyden mixing:
  rms(total) = 0.17981E+00    rms(broyden)= 0.17978E+00
  rms(prec ) = 0.20740E+00
  weight for this iteration     100.00

 eigenvalues of (default mixing * dielectric matrix)
  average eigenvalue GAMMA=   1.0794
  2.4592  1.0080  0.7082  0.1422

 Free energy of the ion-electron system (eV)
  ---------------------------------------------------
  alpha Z        PSCENC =        59.39840802
  Ewald energy   TEWEN  =     12971.67047513
  -Hartree energ DENC   =    -16396.78267008
  -exchange      EXHF   =         0.00000000
  -V(xc)+E(xc)   XCENC  =     -2037.49760378
  PAW double counting   =      5910.92294793    -3497.10290205
  entropy T*S    EENTRO =         0.00000000
  eigenvalues    EBANDS =      -906.30114834
  atomic energy  EATOM  =      3827.98814510
  Solvation  Ediel_sol  =         0.00000000
  ---------------------------------------------------
  free energy    TOTEN  =       -67.70434807 eV

  energy without entropy =      -67.70434807  energy(sigma->0) =      -67.70434807


--------------------------------------------------------------------------------------------------------




--------------------------------------- Iteration      1(  17)  ---------------------------------------


    POTLOK:  cpu time    7.0566: real time    7.0742
    SETDIJ:  cpu time    0.1363: real time    0.1363
    EDDIAG:  cpu time    1.3949: real time    1.3953
  RMM-DIIS:  cpu time    3.2304: real time    3.2308
    ORTHCH:  cpu time    0.4629: real time    0.4629
 BZINTS: Fermi energy: -0.640946;138.000000 electrons
         Band energy:-895.117305;  BLOECHL correction: -0.095616
       DOS:  cpu time    0.0055: real time    0.0055
    CHARGE:  cpu time    0.3010: real time    0.3011
    MIXING:  cpu time    0.0127: real time    0.0127
    --------------------------------------------
      LOOP:  cpu time   12.6003: real time   12.6188

 eigenvalue-minimisations  :  1361
 total energy-change (2. order) : 0.4856031E-01  (-0.2061297E-01)
 number of electron     138.0000001 magnetization 
 augmentation part        4.4321117 magnetization 

 DIPCOR: dipole corrections for dipol
 direction  3 min pos   388,
 dipolmoment           0.000000      0.000000     -0.491730 electrons x Angstroem
 Tr[quadrupol]     -1841.951188

 energy correction for charged system         0.000000 eV
[...]
  0.014  -0.001   0.000   0.053   0.000  -0.000  -0.003  -0.000  -0.000  -0.000   0.011  -0.000  -0.000
  0.001   0.000  -0.001   0.000   0.076   0.000  -0.000  -0.004  -0.003  -0.000  -0.000   0.004   0.000
  0.000   0.000  -0.004  -0.000   0.000   0.000   0.000  -0.000  -0.000  -0.000  -0.000   0.000   0.000
 -0.003   0.000  -0.000  -0.003  -0.000   0.000   0.000   0.000   0.000   0.000  -0.001   0.000   0.000
 -0.000  -0.000   0.000  -0.000  -0.004  -0.000   0.000   0.000   0.000   0.000   0.000  -0.000  -0.000
  0.002   0.000   0.000  -0.000  -0.003  -0.000   0.000   0.000   0.004   0.000   0.000  -0.000  -0.000
 -0.000  -0.000   0.004  -0.000  -0.000  -0.000   0.000   0.000   0.000   0.002   0.000   0.000  -0.000
 -0.021   0.000   0.000   0.011  -0.000  -0.000  -0.001   0.000   0.000   0.000   0.004  -0.000  -0.000
  0.000   0.000  -0.000  -0.000   0.004   0.000   0.000  -0.000  -0.000   0.000  -0.000   0.002   0.000
 -0.002  -0.000  -0.003  -0.000   0.000   0.000   0.000  -0.000  -0.000  -0.000  -0.000   0.000   0.004


------------------------ aborting loop because EDIFF is reached ----------------------------------------


    CHARGE:  cpu time    0.5097: real time    0.5097
    FORLOC:  cpu time    0.0419: real time    0.0420
    FORNL :  cpu time    1.8524: real time    1.8526
    STRESS:  cpu time    5.5616: real time    5.5623
    FORCOR:  cpu time    9.6981: real time    9.6993
    FORHAR:  cpu time    0.2994: real time    0.2994
    MIXING:  cpu time    0.0124: real time    0.0124
    OFIELD:  cpu time    0.0000: real time    0.0000

  FORCE on cell =-STRESS in cart. coord.  units (eV):
  Direction    XX          YY          ZZ          XY          YZ          ZX
  --------------------------------------------------------------------------------------
  Alpha Z    63.16106    63.16106    63.16106
  Ewald   14515.36723 14431.33194-15975.03852  -240.38123   121.93664   116.15746
  Hartree 15414.34801 15346.97872-14332.61729  -172.78217    34.26495    39.68882
  E(xc)    -445.18780  -445.15425  -444.00980    -0.23285     0.49460     0.52485
  Local  -30890.34573-30734.89689 29338.34171   407.76460  -125.08091  -126.41261
  n-local   120.63007   120.31787   111.99217     0.27149     0.68851     0.37603
  augment    44.30833    43.96507    45.84154     0.23365    -2.10603    -1.96076
  Kinetic  1171.44231  1165.68737  1192.86955     3.87554   -29.79632   -28.19564
  Fock        0.00000     0.00000     0.00000     0.00000     0.00000     0.00000
  -------------------------------------------------------------------------------------
  Total      -6.27651    -8.60910     0.54041    -1.25096     0.40144     0.17814
  in kB      -3.89778    -5.34634     0.33560    -0.77686     0.24930     0.11063
  external pressure =       -2.97 kB  Pullay stress =        0.00 kB


 VOLUME and BASIS-vectors are now :
 -----------------------------------------------------------------------------
  energy-cutoff  :      520.00
  volume of cell :     2579.96
      direct lattice vectors                 reciprocal lattice vectors
     9.555752754  0.000000000  0.000000000     0.104649003  0.060419130  0.000000000
    -4.777876377  8.275524637  0.000000000     0.000000000  0.120838260  0.000000000
     0.000000000  0.000000000 32.625095367     0.000000000  0.000000000  0.030651251

  length of vectors
     9.555752754  9.555752754 32.625095367     0.120838260  0.120838260  0.030651251


 FORCES acting on ions
    electron-ion (+dipol)            ewald-force                    non-local-force                 convergence-correction
 -----------------------------------------------------------------------------------------------
   0.429E-01 -.286E-01 0.122E+03   -.411E-02 -.322E-02 -.121E+03   -.205E-01 0.122E-01 -.816E+00   -.239E-06 -.565E-06 -.624E-04
   0.129E+00 -.147E+00 0.566E+02   -.125E+00 0.657E-01 -.567E+02   -.454E-02 0.583E-01 0.102E-01   -.338E-05 0.116E-05 -.393E-03
   -.263E+01 -.415E+01 0.267E+01   0.269E+01 0.412E+01 -.358E+01   -.414E-01 0.124E-01 0.897E+00   0.272E-06 -.415E-05 -.849E-04
   -.227E-01 -.264E-01 0.122E+03   0.343E-02 0.836E-03 -.121E+03   -.172E-03 0.152E-01 -.867E+00   0.839E-07 0.278E-05 -.644E-04
   -.115E+00 -.344E-01 0.564E+02   0.130E+00 0.391E-01 -.565E+02   -.216E-01 -.323E-02 0.491E-01   0.176E-05 -.391E-05 -.396E-03
   -.406E+01 -.354E+01 -.789E+01   0.404E+01 0.348E+01 0.743E+01   0.389E-02 0.518E-01 0.471E+00   -.473E-05 -.339E-05 -.137E-03
   0.326E-01 0.329E-01 0.122E+03   -.612E-02 -.149E-02 -.121E+03   -.193E-01 0.301E-02 -.896E+00   0.400E-05 0.177E-06 -.658E-04
   0.165E-01 0.125E+00 0.567E+02   -.217E-01 -.103E+00 -.568E+02   -.750E-02 -.973E-02 0.738E-01   -.167E-05 0.775E-06 -.395E-03
   -.256E+01 0.150E+01 -.121E+02   0.255E+01 -.145E+01 0.116E+02   0.200E-01 -.800E-02 0.530E+00   0.827E-06 0.506E-05 -.126E-03
   -.211E-01 -.611E-01 0.122E+03   -.501E-03 0.122E-02 -.121E+03   -.145E-02 0.469E-01 -.915E+00   0.144E-05 -.485E-05 -.637E-04
   0.220E-01 -.611E-01 0.568E+02   0.392E-02 0.260E-01 -.568E+02   -.252E-01 0.273E-01 0.607E-01   -.424E-06 0.222E-05 -.400E-03
   -.129E+01 -.950E+00 -.478E+01   0.118E+01 0.872E+00 0.443E+01   0.809E-01 0.717E-01 0.366E+00   -.293E-05 -.433E-05 -.142E-03
   0.207E-01 0.360E-01 0.122E+03   0.154E-02 0.934E-02 -.121E+03   -.211E-01 -.332E-01 -.906E+00   -.662E-06 0.382E-05 -.654E-04
   0.148E+00 -.125E+00 0.564E+02   -.119E+00 0.149E+00 -.565E+02   -.178E-01 -.160E-01 0.497E-01   -.198E-06 -.108E-05 -.394E-03
   0.388E+01 0.258E+00 -.174E+02   -.392E+01 -.157E+00 0.169E+02   0.400E-01 -.802E-01 0.457E+00   0.227E-05 0.897E-05 -.124E-03
   0.352E-01 -.190E-01 0.122E+03   0.998E-02 -.418E-02 -.121E+03   -.392E-01 0.175E-01 -.802E+00   -.832E-06 0.133E-05 -.627E-04
   -.123E+00 0.161E+00 0.564E+02   0.143E+00 -.146E+00 -.564E+02   -.179E-01 -.349E-02 0.759E-02   0.191E-05 0.160E-06 -.394E-03
   -.398E+01 0.506E+01 -.412E+01   0.414E+01 -.521E+01 0.332E+01   -.142E+00 0.138E+00 0.802E+00   0.371E-05 -.133E-05 -.819E-04
   0.251E-01 0.185E-01 0.122E+03   0.463E-02 -.700E-02 -.121E+03   -.304E-01 0.706E-02 -.892E+00   -.144E-05 -.274E-05 -.627E-04
   -.129E+00 0.900E-01 0.566E+02   0.126E+00 -.122E+00 -.566E+02   -.382E-02 0.214E-01 0.572E-01   0.329E-05 -.406E-06 -.397E-03
   0.249E+01 0.234E+01 -.124E+02   -.238E+01 -.231E+01 0.121E+02   -.959E-01 -.185E-02 0.385E+00   0.228E-05 0.319E-05 -.128E-03
   0.334E-01 -.279E-01 0.122E+03   -.493E-02 0.703E-02 -.121E+03   -.185E-01 -.567E-03 -.819E+00   0.641E-06 0.140E-05 -.639E-04
   0.323E-02 -.740E-01 0.567E+02   -.909E-02 0.959E-01 -.567E+02   -.951E-02 -.178E-01 0.118E-01   -.144E-05 -.740E-06 -.392E-03
   -.668E+00 0.304E+01 0.713E+01   0.765E+00 -.322E+01 -.798E+01   -.810E-01 0.164E+00 0.842E+00   0.359E-05 -.648E-06 -.925E-04
   -.184E-01 0.279E-01 0.122E+03   -.385E-02 -.237E-02 -.121E+03   0.212E-02 -.166E-01 -.838E+00   -.289E-05 -.873E-06 -.648E-04
   0.141E+00 0.153E-01 0.563E+02   -.129E+00 0.375E-02 -.563E+02   -.614E-02 -.872E-02 0.413E-02   0.380E-06 0.207E-05 -.394E-03
   0.391E+01 -.212E+01 0.549E+01   -.388E+01 0.229E+01 -.664E+01   -.597E-01 -.167E+00 0.117E+01   -.557E-05 -.277E-05 -.119E-03
   -.317E-01 -.160E-01 0.898E+02   0.183E-01 -.122E-01 -.898E+02   0.191E-01 -.107E-01 -.448E-01   -.199E-05 -.401E-05 -.287E-03
   -.154E+00 -.228E+00 0.228E+02   0.151E+00 0.270E+00 -.229E+02   0.884E-02 -.664E-01 0.119E+00   -.100E-05 -.674E-05 -.322E-03
   -.715E-01 -.794E-02 0.898E+02   0.686E-01 0.709E-02 -.898E+02   0.240E-01 0.857E-04 -.497E-01   0.454E-05 0.203E-05 -.291E-03
   -.101E+01 0.611E-01 0.227E+02   0.933E+00 -.521E-01 -.229E+02   0.839E-01 0.293E-02 0.158E+00   0.873E-05 0.269E-05 -.320E-03
   -.261E-02 0.689E-02 0.898E+02   -.690E-01 0.446E-02 -.898E+02   0.122E-01 -.130E-01 -.101E+00   -.595E-06 0.312E-05 -.287E-03
   0.255E+00 -.304E+00 0.244E+02   -.225E+00 0.252E+00 -.244E+02   -.579E-01 0.468E-01 0.883E-01   -.866E-05 0.399E-05 -.321E-03
   0.601E-02 -.173E-02 0.898E+02   0.613E-02 0.823E-01 -.898E+02   0.866E-02 -.408E-01 -.369E-01   0.305E-05 -.179E-05 -.287E-03
   0.406E+00 -.689E-01 0.237E+02   -.427E+00 0.129E+00 -.238E+02   0.487E-01 -.272E-01 0.147E+00   0.500E-05 0.724E-05 -.323E-03
   -.883E-01 -.560E-01 0.897E+02   0.336E-01 0.511E-01 -.897E+02   0.347E-01 0.243E-02 -.798E-01   -.383E-05 0.302E-05 -.290E-03
   0.119E+01 -.310E-01 0.223E+02   -.112E+01 -.198E-01 -.225E+02   -.641E-01 0.543E-01 0.160E+00   -.504E-05 0.224E-05 -.312E-03
   -.279E-01 0.737E-01 0.899E+02   0.457E-01 -.884E-01 -.898E+02   -.135E-02 -.263E-01 -.497E-01   -.245E-06 -.237E-05 -.290E-03
   -.217E+00 0.830E+00 0.231E+02   0.257E+00 -.811E+00 -.233E+02   -.304E-01 -.394E-01 0.183E+00   0.414E-05 -.772E-05 -.320E-03
   0.442E-01 0.424E-03 0.898E+02   -.307E-01 0.200E-01 -.898E+02   -.331E-01 -.490E-02 -.105E+00   -.134E-05 -.125E-05 -.287E-03
   -.226E+00 -.119E-01 0.242E+02   0.259E+00 -.156E-02 -.243E+02   -.584E-01 0.258E-01 0.962E-01   -.442E-05 0.325E-06 -.319E-03
   0.134E+00 -.138E-01 0.898E+02   -.104E+00 -.774E-02 -.897E+02   -.254E-01 -.445E-02 -.126E-01   -.922E-06 -.237E-05 -.289E-03
   -.177E+00 0.138E+00 0.237E+02   0.179E+00 -.123E+00 -.239E+02   -.228E-02 -.401E-01 0.189E+00   -.410E-05 -.692E-05 -.320E-03
   0.268E-01 0.993E-01 0.898E+02   0.203E-01 -.896E-01 -.897E+02   0.550E-02 -.592E-02 -.284E-01   0.137E-05 0.331E-05 -.287E-03
   -.414E-02 -.364E+00 0.232E+02   -.510E-01 0.333E+00 -.233E+02   0.798E-01 0.266E-01 0.172E+00   0.485E-05 0.458E-05 -.318E-03
   0.160E+02 0.315E+02 -.267E+03   -.279E+02 -.586E+02 0.242E+03   0.120E+02 0.270E+02 0.247E+02   -.101E-04 -.147E-04 0.305E-03
   0.608E+01 0.682E+01 -.408E+03   -.197E+02 -.340E+02 0.437E+03   0.136E+02 0.272E+02 -.286E+02   -.177E-04 -.268E-04 0.431E-03
   0.147E+01 0.781E+01 -.411E+03   -.147E+02 -.307E+02 0.444E+03   0.133E+02 0.229E+02 -.330E+02   -.427E-04 -.292E-04 0.435E-03
   0.409E+02 0.452E+02 -.254E+03   -.602E+02 -.722E+02 0.234E+03   0.193E+02 0.270E+02 0.198E+02   -.587E-05 -.285E-04 0.272E-03
   -.841E+01 0.176E+02 -.269E+03   0.375E+02 -.414E+02 0.256E+03   -.290E+02 0.238E+02 0.127E+02   0.999E-04 -.364E-04 0.210E-03
   -.107E+02 0.631E+02 -.260E+03   0.243E+00 -.835E+02 0.228E+03   0.104E+02 0.204E+02 0.314E+02   -.826E-04 -.379E-05 0.249E-03
   0.347E+02 -.484E+02 -.860E+02   -.393E+02 0.541E+02 0.888E+02   0.460E+01 -.572E+01 -.281E+01   -.368E-05 0.237E-05 0.622E-04
   -.572E+02 -.419E+01 -.958E+02   0.643E+02 0.428E+01 0.994E+02   -.712E+01 -.109E+00 -.358E+01   0.192E-05 -.135E-05 0.640E-04
   -.410E+02 -.689E+02 -.715E+02   0.452E+02 0.758E+02 0.723E+02   -.427E+01 -.687E+01 -.756E+00   0.119E-05 0.162E-05 0.675E-04
   0.121E+02 0.325E+01 0.380E+02   -.134E+02 -.384E+01 -.450E+02   0.137E+01 0.582E+00 0.698E+01   -.202E-05 -.322E-05 0.397E-04
   -.427E+02 -.738E+02 -.555E+02   0.466E+02 0.808E+02 0.552E+02   -.388E+01 -.705E+01 0.375E+00   -.768E-05 -.775E-05 0.655E-04
   0.884E+01 0.199E+02 0.351E+02   -.983E+01 -.219E+02 -.418E+02   0.980E+00 0.197E+01 0.675E+01   -.485E-05 0.411E-06 0.471E-04
   0.229E+02 -.582E+02 -.764E+02   -.259E+02 0.653E+02 0.783E+02   0.296E+01 -.715E+01 -.195E+01   0.243E-05 -.560E-05 0.516E-04
   -.539E+02 0.783E+01 -.909E+02   0.608E+02 -.911E+01 0.944E+02   -.693E+01 0.128E+01 -.354E+01   -.258E-05 -.180E-05 0.558E-04
   -.360E+01 -.654E+02 -.853E+02   0.472E+01 0.728E+02 0.883E+02   -.107E+01 -.736E+01 -.299E+01   0.721E-05 0.739E-07 0.521E-04
   0.787E+02 0.219E+02 -.476E+02   -.861E+02 -.238E+02 0.476E+02   0.741E+01 0.200E+01 0.344E-01   0.655E-05 -.480E-05 0.369E-04
   0.264E+02 -.440E+02 -.763E+02   -.303E+02 0.502E+02 0.784E+02   0.393E+01 -.615E+01 -.215E+01   -.630E-05 0.118E-05 0.572E-04
   -.574E+02 0.208E+02 -.120E+03   0.630E+02 -.226E+02 0.126E+03   -.562E+01 0.173E+01 -.564E+01   -.313E-05 -.356E-06 0.705E-04
 -----------------------------------------------------------------------------------------------
   -.314E+02 -.116E+03 -.169E+02   -.213E-13 0.639E-13 -.711E-12   0.314E+02 0.116E+03 0.169E+02   -.705E-04 -.158E-03 -.806E-02
 
 
 POSITION                                       TOTAL-FORCE (eV/Angst)
 -----------------------------------------------------------------------------------
      0.00000      0.00000      0.00000         0.018538     -0.019572      0.010736
      4.76534      8.26915      5.15171        -0.000447     -0.022555     -0.008882
      4.75425      8.27360     10.69264         0.016665     -0.015487     -0.016484
     -1.59263      2.75851      0.00000        -0.019217     -0.010270     -0.014442
      7.96185      2.75116      5.13443        -0.005742      0.001570     -0.002856
      7.93839      2.74474     10.10346        -0.024379     -0.011325      0.008763
     -3.18525      5.51702      0.00000         0.007359      0.034545     -0.022297
      6.36468      5.49698      5.12938        -0.012439      0.012453     -0.001265
      6.35763      5.53191     10.18761         0.007170      0.032522      0.015306
      3.18525      0.00000      0.00000        -0.022863     -0.012912     -0.025161
     -1.58934      8.26998      5.12372         0.000962     -0.007774      0.000674
     -1.64640      8.25536     10.04728        -0.031476     -0.006221      0.012455
      1.59263      2.75851      0.00000         0.001300      0.012185     -0.013941
      1.58752      2.75521      5.13799         0.011286      0.007646     -0.006029
      1.52640      2.75329     10.25608         0.003265      0.020693      0.020570
     -0.00000      5.51702      0.00000         0.006287     -0.005666     -0.003241
     -0.00268      5.50665      5.15736         0.002151      0.011409      0.003651
     -0.08968      5.49888     10.76346         0.018829     -0.016402     -0.004529
      6.37050      0.00000      0.00000        -0.000428      0.018603     -0.023348
      1.59430      8.26121      5.13185        -0.007214     -0.010282      0.003937
      1.57523      8.22823     10.21059         0.006211      0.027863      0.005943
      4.77788      2.75851      0.00000         0.010148     -0.021338     -0.001144
      4.77222      2.75350      5.15889        -0.015164      0.004114      0.005943
      4.77378      2.64360     10.54200         0.016014     -0.019507     -0.009247
      3.18525      5.51702      0.00000        -0.019923      0.009014     -0.035539
      3.18657      5.50876      5.16615         0.005694      0.010370      0.004743
      3.18361      5.48170     10.31761        -0.033231      0.003165      0.021627
      0.00000      1.83901      2.60418         0.005871     -0.038796      0.008947
      0.01096      1.79669      7.69023         0.006235     -0.024404      0.005844
     -1.59263      4.59751      2.60418         0.021325     -0.000690      0.011232
     -1.57765      4.61308      7.68634         0.007477      0.011948      0.001222
     -3.18525      7.35602      2.60418        -0.059200     -0.001541     -0.037494
     -3.21182      7.33360      7.61402        -0.028115     -0.005055      0.011554
      3.18525      1.83901      2.60418         0.021010      0.039883      0.016585
      3.18136      1.85908      7.67576         0.027303      0.032996      0.002023
      1.59263      4.59751      2.60418        -0.019781     -0.002411     -0.001007
      1.57019      4.60323      7.72474        -0.001416      0.003565      0.000286
      0.00000      7.35602      2.60418         0.016685     -0.040842      0.018417
      0.00606      7.31880      7.66840         0.009496     -0.020504     -0.002136
      6.37050      1.83901      2.60418        -0.019324      0.015611     -0.031227
      6.33972      1.81352      7.65620        -0.025242      0.012374      0.007452
      4.77788      4.59751      2.60418         0.004903     -0.025863      0.039369
      4.76745      4.54980      7.73973        -0.000035     -0.025867     -0.016957
      3.18525      7.35602      2.60418         0.052754      0.003886      0.025334
      3.21084      7.34201      7.74178         0.024896     -0.004102     -0.003496
      4.56132      8.16419     12.92956        -0.013647     -0.012541      0.015341
     -2.09463      7.99636     13.42923        -0.004954      0.004148      0.036631
      7.37977      2.00515     13.38579         0.006713     -0.002926      0.032889
      4.63547      2.70242     12.72574        -0.000320     -0.005047      0.011063
      3.29927      5.21311     12.64880         0.047539      0.019750      0.003589
     -0.51928      5.69574     12.92893        -0.020079      0.006554      0.002400
      8.78031      0.62015     13.29584        -0.009216     -0.011228     -0.006473
     -4.11866      8.20007     13.38495        -0.005149     -0.014067     -0.010248
      3.19914      0.55351     13.50387        -0.009714      0.001518      0.000130
     -2.27083      7.93665     12.44162        -0.014195     -0.007472     -0.027110
      7.85358      2.86394     13.31961         0.003341     -0.003630     -0.004075
      7.25575      1.75179     12.41908        -0.010106     -0.012132     -0.028728
      4.29191      3.59194     12.98194         0.007656      0.018704     -0.004154
      5.50601      2.56850     13.17677         0.006321      0.001967     -0.008973
      3.40036      6.11935     13.02488         0.052267      0.038665     -0.007098
      2.33454      4.98326     12.65861        -0.019305      0.025170      0.027571
     -1.01699      6.50658     13.22877        -0.011417     -0.002240     -0.007855
      0.15214      5.50822     13.61415         0.010068     -0.002220     -0.006796
 -----------------------------------------------------------------------------------
    total drift:                               -0.013210     -0.004715     -0.009331


--------------------------------------------------------------------------------------------------------



  FREE ENERGIE OF THE ION-ELECTRON SYSTEM (eV)
  ---------------------------------------------------
  free  energy   TOTEN  =       -67.63655937 eV

  energy  without entropy=      -67.63655937  energy(sigma->0) =      -67.63655937
 


--------------------------------------------------------------------------------------------------------


    POTLOK:  cpu time    9.9380: real time    9.9399


--------------------------------------------------------------------------------------------------------


 stress matrix after NEB project (eV)
     -6.27651     -1.25096      0.17814
     -1.25096     -8.60910      0.40144
      0.17814      0.40144      0.54041
  FORCES: max atom, RMS     0.065400    0.023059
  FORCE total and by dimension    0.183026    0.052267
  Stress total and by dimension   10.831385    8.609103
     LOOP+:  cpu time  620.7447: real time  622.4647
 vacuum level on the upper side and lower side of the slab         2.113         3.290
    4ORBIT:  cpu time    0.0000: real time    0.0000
 BZINTS: Fermi energy: -0.520674;138.000000 electrons
         Band energy:-879.408570;  BLOECHL correction: -0.097942

 total amount of memory used by VASP MPI-rank0    62223. kBytes
=======================================================================

   base      :      30000. kBytes
   nonlr-proj:       6320. kBytes
   fftplans  :       6459. kBytes
   grid      :      11407. kBytes
   one-center:         24. kBytes
   wavefun   :       8013. kBytes
 
  
  
 General timing and accounting informations for this job:
 ========================================================
  
                  Total CPU time used (sec):      677.599
                            User time (sec):      667.753
                          System time (sec):        9.846
                         Elapsed time (sec):      687.225
  
                   Maximum memory used (kb):      271852.
                   Average memory used (kb):           0.
  
                          Minor page faults:       308971
                          Major page faults:            0
                 Voluntary context switches:        52686
