Mg_slab_in_a_box                        
           1
     9.555753    0.000000    0.000000
    -4.777876    8.275525    0.000000
     0.000000    0.000000   32.625095
   Mg   O    H 
  45   6  12
Direct configuration=     1
   0.00000000  0.00000000  0.00000000
   0.99830249  0.99922910  0.15790636
   0.99741152  0.99976785  0.32774279
   0.00000001  0.33333336  0.00000000
   0.99942299  0.33244574  0.15737655
   0.99657928  0.33166981  0.30968373
   0.00000002  0.66666672  0.00000000
   0.99818061  0.66424594  0.15722206
   0.99955286  0.66846581  0.31226308
   0.33333334  0.00000000  0.00000000
   0.33334179  0.99933025  0.15704843
   0.32648762  0.99756284  0.30796161
   0.33333335  0.33333336  0.00000000
   0.33259991  0.33293487  0.15748591
   0.32608762  0.33270286  0.31436168
   0.33333336  0.66666672  0.00000000
   0.33242682  0.66541404  0.15807969
   0.32285261  0.66447536  0.32991366
   0.66666668  0.00000000  0.00000000
   0.66597728  0.99827020  0.15729750
   0.66198907  0.99428540  0.31296721
   0.66666668  0.33333336  0.00000000
   0.66577153  0.33272773  0.15812655
   0.65929455  0.31944746  0.32312549
   0.66666670  0.66666672  0.00000000
   0.66630662  0.66566954  0.15834909
   0.66436111  0.66239890  0.31624772
   0.11111113  0.22222222  0.07982145
   0.10970116  0.21710913  0.23571521
   0.11111114  0.55555561  0.07982145
   0.11361948  0.55743705  0.23559585
   0.11111116  0.88888894  0.07982145
   0.10697597  0.88618006  0.23337934
   0.44444450  0.22222222  0.07982145
   0.44525015  0.22464808  0.23527172
   0.44444450  0.55555561  0.07982145
   0.44244240  0.55624633  0.23677300
   0.44444451  0.88888894  0.07982145
   0.44282991  0.88439080  0.23504621
   0.77777779  0.22222222  0.07982145
   0.77301679  0.21914316  0.23467221
   0.77777781  0.55555561  0.07982145
   0.77380434  0.54979015  0.23723231
   0.77777784  0.88888894  0.07982145
   0.77960942  0.88719602  0.23729510
   0.97061073  0.98654628  0.39630710
   0.26393265  0.96626676  0.41162281
   0.89343467  0.24229880  0.41029123
   0.64837502  0.32655555  0.39005982
   0.66023678  0.62994303  0.38770149
   0.28978917  0.68826352  0.39628786
   0.95632014  0.07493833  0.40753420
   0.06442741  0.99088182  0.41026532
   0.36822918  0.06688464  0.41391063
   0.24188540  0.95905051  0.38135133
   0.99490645  0.34607389  0.40826263
   0.86514891  0.21168384  0.38066021
   0.66616621  0.43404337  0.39791275
   0.73138447  0.31037299  0.40388449
   0.72557006  0.73945170  0.39922875
   0.54539103  0.60216814  0.38800228
   0.28669482  0.78624365  0.40547842
   0.34872277  0.66560371  0.41729071
