  63  63   0   0
  0.4095168E+02  0.9555753E-09  0.9555753E-09  0.3262510E-08  0.5000000E-15
  1.000000000000000E-004
  CAR 
 Mg_slab_in_a_box                        
      4.12834329    -25.82024590  301     -0.65707444      1.00000000
    -25.820  0.0000E+00  0.0000E+00
    -25.720  0.0000E+00  0.0000E+00
    -25.621  0.0000E+00  0.0000E+00
    -25.521  0.0000E+00  0.0000E+00
    -25.421  0.0000E+00  0.0000E+00
    -25.321  0.0000E+00  0.0000E+00
    -25.221  0.0000E+00  0.0000E+00
    -25.121  0.0000E+00  0.0000E+00
    -25.022  0.0000E+00  0.0000E+00
    -24.922  0.0000E+00  0.0000E+00
    -24.822  0.0000E+00  0.0000E+00
    -24.722  0.0000E+00  0.0000E+00
    -24.622  0.0000E+00  0.0000E+00
    -24.522  0.0000E+00  0.0000E+00
    -24.423  0.0000E+00  0.0000E+00
    -24.323  0.0000E+00  0.0000E+00
    -24.223  0.0000E+00  0.0000E+00
    -24.123  0.0000E+00  0.0000E+00
    -24.023  0.0000E+00  0.0000E+00
    -23.924  0.0000E+00  0.0000E+00
    -23.824  0.0000E+00  0.0000E+00
    -23.724  0.4695E+01  0.3991E+01
    -23.624  0.0000E+00  0.6000E+01
    -23.524  0.0000E+00  0.6000E+01
    -23.424  0.7530E+00  0.8000E+01
    -23.325  0.2730E+02  0.1192E+02
    -23.225  0.0000E+00  0.1200E+02
    -23.125  0.0000E+00  0.1200E+02
    -23.025  0.0000E+00  0.1200E+02
    -22.925  0.0000E+00  0.1200E+02
    -22.825  0.0000E+00  0.1200E+02
    -22.726  0.0000E+00  0.1200E+02
    -22.626  0.0000E+00  0.1200E+02
    -22.526  0.0000E+00  0.1200E+02
    -22.426  0.0000E+00  0.1200E+02
    -22.326  0.0000E+00  0.1200E+02
    -22.226  0.0000E+00  0.1200E+02
    -22.127  0.0000E+00  0.1200E+02
    -22.027  0.0000E+00  0.1200E+02
    -21.927  0.0000E+00  0.1200E+02
    -21.827  0.0000E+00  0.1200E+02
    -21.727  0.0000E+00  0.1200E+02
    -21.627  0.0000E+00  0.1200E+02
    -21.528  0.0000E+00  0.1200E+02
    -21.428  0.0000E+00  0.1200E+02
    -21.328  0.0000E+00  0.1200E+02
    -21.228  0.0000E+00  0.1200E+02
    -21.128  0.0000E+00  0.1200E+02
    -21.028  0.0000E+00  0.1200E+02
    -20.929  0.0000E+00  0.1200E+02
    -20.829  0.0000E+00  0.1200E+02
    -20.729  0.0000E+00  0.1200E+02
    -20.629  0.0000E+00  0.1200E+02
    -20.529  0.0000E+00  0.1200E+02
    -20.429  0.0000E+00  0.1200E+02
    -20.330  0.0000E+00  0.1200E+02
    -20.230  0.0000E+00  0.1200E+02
    -20.130  0.0000E+00  0.1200E+02
    -20.030  0.0000E+00  0.1200E+02
    -19.930  0.0000E+00  0.1200E+02
    -19.831  0.0000E+00  0.1200E+02
    -19.731  0.0000E+00  0.1200E+02
    -19.631  0.0000E+00  0.1200E+02
    -19.531  0.0000E+00  0.1200E+02
    -19.431  0.0000E+00  0.1200E+02
    -19.331  0.0000E+00  0.1200E+02
    -19.232  0.0000E+00  0.1200E+02
    -19.132  0.0000E+00  0.1200E+02
    -19.032  0.0000E+00  0.1200E+02
    -18.932  0.0000E+00  0.1200E+02
    -18.832  0.0000E+00  0.1200E+02
    -18.732  0.0000E+00  0.1200E+02
    -18.633  0.0000E+00  0.1200E+02
    -18.533  0.0000E+00  0.1200E+02
    -18.433  0.0000E+00  0.1200E+02
    -18.333  0.0000E+00  0.1200E+02
    -18.233  0.0000E+00  0.1200E+02
    -18.133  0.0000E+00  0.1200E+02
    -18.034  0.0000E+00  0.1200E+02
    -17.934  0.0000E+00  0.1200E+02
    -17.834  0.0000E+00  0.1200E+02
    -17.734  0.0000E+00  0.1200E+02
    -17.634  0.0000E+00  0.1200E+02
    -17.534  0.0000E+00  0.1200E+02
    -17.435  0.0000E+00  0.1200E+02
    -17.335  0.0000E+00  0.1200E+02
    -17.235  0.0000E+00  0.1200E+02
    -17.135  0.0000E+00  0.1200E+02
    -17.035  0.0000E+00  0.1200E+02
    -16.935  0.0000E+00  0.1200E+02
    -16.836  0.0000E+00  0.1200E+02
    -16.736  0.0000E+00  0.1200E+02
    -16.636  0.0000E+00  0.1200E+02
    -16.536  0.0000E+00  0.1200E+02
    -16.436  0.0000E+00  0.1200E+02
    -16.337  0.0000E+00  0.1200E+02
    -16.237  0.0000E+00  0.1200E+02
    -16.137  0.0000E+00  0.1200E+02
    -16.037  0.0000E+00  0.1200E+02
    -15.937  0.0000E+00  0.1200E+02
    -15.837  0.0000E+00  0.1200E+02
    -15.738  0.0000E+00  0.1200E+02
    -15.638  0.0000E+00  0.1200E+02
    -15.538  0.0000E+00  0.1200E+02
    -15.438  0.0000E+00  0.1200E+02
    -15.338  0.0000E+00  0.1200E+02
    -15.238  0.0000E+00  0.1200E+02
    -15.139  0.0000E+00  0.1200E+02
    -15.039  0.0000E+00  0.1200E+02
    -14.939  0.0000E+00  0.1200E+02
    -14.839  0.0000E+00  0.1200E+02
    -14.739  0.0000E+00  0.1200E+02
    -14.639  0.0000E+00  0.1200E+02
    -14.540  0.0000E+00  0.1200E+02
    -14.440  0.0000E+00  0.1200E+02
    -14.340  0.0000E+00  0.1200E+02
    -14.240  0.0000E+00  0.1200E+02
    -14.140  0.0000E+00  0.1200E+02
    -14.040  0.0000E+00  0.1200E+02
    -13.941  0.0000E+00  0.1200E+02
    -13.841  0.0000E+00  0.1200E+02
    -13.741  0.0000E+00  0.1200E+02
    -13.641  0.0000E+00  0.1200E+02
    -13.541  0.0000E+00  0.1200E+02
    -13.441  0.0000E+00  0.1200E+02
    -13.342  0.0000E+00  0.1200E+02
    -13.242  0.0000E+00  0.1200E+02
    -13.142  0.0000E+00  0.1200E+02
    -13.042  0.0000E+00  0.1200E+02
    -12.942  0.0000E+00  0.1200E+02
    -12.843  0.0000E+00  0.1200E+02
    -12.743  0.0000E+00  0.1200E+02
    -12.643  0.0000E+00  0.1200E+02
    -12.543  0.0000E+00  0.1200E+02
    -12.443  0.0000E+00  0.1200E+02
    -12.343  0.0000E+00  0.1200E+02
    -12.244  0.0000E+00  0.1200E+02
    -12.144  0.0000E+00  0.1200E+02
    -12.044  0.0000E+00  0.1200E+02
    -11.944  0.0000E+00  0.1200E+02
    -11.844  0.1438E+03  0.1416E+02
    -11.744  0.0000E+00  0.1800E+02
    -11.645  0.0000E+00  0.1800E+02
    -11.545  0.0000E+00  0.1800E+02
    -11.445  0.0000E+00  0.1800E+02
    -11.345  0.0000E+00  0.1800E+02
    -11.245  0.0000E+00  0.1800E+02
    -11.145  0.0000E+00  0.2000E+02
    -11.046  0.2472E+02  0.2208E+02
    -10.946  0.0000E+00  0.2400E+02
    -10.846  0.0000E+00  0.2400E+02
    -10.746  0.0000E+00  0.2400E+02
    -10.646  0.0000E+00  0.2400E+02
    -10.546  0.0000E+00  0.2400E+02
    -10.447  0.0000E+00  0.2400E+02
    -10.347  0.0000E+00  0.2400E+02
    -10.247  0.0000E+00  0.2400E+02
    -10.147  0.0000E+00  0.2400E+02
    -10.047  0.0000E+00  0.2400E+02
     -9.947  0.0000E+00  0.2400E+02
     -9.848  0.0000E+00  0.2400E+02
     -9.748  0.0000E+00  0.2400E+02
     -9.648  0.0000E+00  0.2400E+02
     -9.548  0.0000E+00  0.2400E+02
     -9.448  0.0000E+00  0.2400E+02
     -9.349  0.0000E+00  0.2400E+02
     -9.249  0.0000E+00  0.2400E+02
     -9.149  0.0000E+00  0.2400E+02
     -9.049  0.0000E+00  0.2400E+02
     -8.949  0.0000E+00  0.2400E+02
     -8.849  0.0000E+00  0.2400E+02
     -8.750  0.0000E+00  0.2400E+02
     -8.650  0.7330E+02  0.2465E+02
     -8.550  0.0000E+00  0.3000E+02
     -8.450  0.0000E+00  0.3000E+02
     -8.350  0.0000E+00  0.3000E+02
     -8.250  0.0000E+00  0.3000E+02
     -8.151  0.0000E+00  0.3000E+02
     -8.051  0.0000E+00  0.3000E+02
     -7.951  0.0000E+00  0.3000E+02
     -7.851  0.1013E+02  0.3401E+02
     -7.751  0.0000E+00  0.3600E+02
     -7.651  0.0000E+00  0.3600E+02
     -7.552  0.0000E+00  0.3600E+02
     -7.452  0.0000E+00  0.3600E+02
     -7.352  0.1947E+01  0.3608E+02
     -7.252  0.4213E+01  0.3639E+02
     -7.152  0.5066E+01  0.3690E+02
     -7.052  0.3906E+01  0.3734E+02
     -6.953  0.2746E+01  0.3768E+02
     -6.853  0.1586E+01  0.3789E+02
     -6.753  0.2577E+01  0.3808E+02
     -6.653  0.2334E+02  0.3901E+02
     -6.553  0.1088E+02  0.4085E+02
     -6.453  0.3608E+02  0.4364E+02
     -6.354  0.1395E+02  0.4568E+02
     -6.254  0.2810E+01  0.4754E+02
     -6.154  0.1958E+01  0.4778E+02
     -6.054  0.9543E+01  0.4809E+02
     -5.954  0.3141E+02  0.5013E+02
     -5.855  0.8850E+02  0.5519E+02
     -5.755  0.2338E+02  0.5773E+02
     -5.655  0.1495E+02  0.5902E+02
     -5.555  0.1118E+02  0.6033E+02
     -5.455  0.7403E+01  0.6126E+02
     -5.355  0.3628E+01  0.6181E+02
     -5.256  0.5322E+00  0.6199E+02
     -5.156  0.1952E+02  0.6460E+02
     -5.056  0.0000E+00  0.6600E+02
     -4.956  0.1163E+02  0.6626E+02
     -4.856  0.7187E+01  0.6720E+02
     -4.756  0.3006E+01  0.6770E+02
     -4.657  0.5487E+01  0.6806E+02
     -4.557  0.1015E+02  0.6883E+02
     -4.457  0.1357E+02  0.7123E+02
     -4.357  0.2281E+02  0.7305E+02
     -4.257  0.2140E+02  0.7504E+02
     -4.157  0.1883E+02  0.7738E+02
     -4.058  0.1242E+01  0.7833E+02
     -3.958  0.3125E+01  0.7847E+02
     -3.858  0.3016E+02  0.8012E+02
     -3.758  0.1333E+02  0.8298E+02
     -3.658  0.5534E+01  0.8448E+02
     -3.558  0.6474E+01  0.8512E+02
     -3.459  0.6397E+01  0.8576E+02
     -3.359  0.6320E+01  0.8640E+02
     -3.259  0.6243E+01  0.8702E+02
     -3.159  0.3127E+02  0.8798E+02
     -3.059  0.6499E+01  0.9104E+02
     -2.959  0.1008E+02  0.9197E+02
     -2.860  0.3777E+02  0.9483E+02
     -2.760  0.3249E+02  0.9868E+02
     -2.660  0.1388E+02  0.1009E+03
     -2.560  0.7111E+01  0.1019E+03
     -2.460  0.6514E+01  0.1025E+03
     -2.361  0.2993E+02  0.1056E+03
     -2.261  0.2511E+01  0.1075E+03
     -2.161  0.1442E+02  0.1082E+03
     -2.061  0.6483E+01  0.1093E+03
     -1.961  0.6483E+01  0.1097E+03
     -1.861  0.2414E+02  0.1112E+03
     -1.762  0.3350E+02  0.1143E+03
     -1.662  0.3591E+02  0.1176E+03
     -1.562  0.3452E+02  0.1212E+03
     -1.462  0.1561E+02  0.1235E+03
     -1.362  0.1043E+02  0.1248E+03
     -1.262  0.1179E+02  0.1272E+03
     -1.163  0.8938E+01  0.1282E+03
     -1.063  0.1245E+02  0.1292E+03
     -0.963  0.3309E+02  0.1314E+03
     -0.863  0.1801E+02  0.1344E+03
     -0.763  0.9058E+01  0.1356E+03
     -0.663  0.6772E+02  0.1377E+03
     -0.564  0.1788E+02  0.1421E+03
     -0.464  0.1693E+02  0.1440E+03
     -0.364  0.1316E+02  0.1452E+03
     -0.264  0.1669E+02  0.1467E+03
     -0.164  0.1205E+02  0.1480E+03
     -0.064  0.1800E+02  0.1495E+03
      0.035  0.8855E+02  0.1519E+03
      0.135  0.3924E+02  0.1552E+03
      0.235  0.7283E+02  0.1591E+03
      0.335  0.6408E+01  0.1603E+03
      0.435  0.1388E+02  0.1613E+03
      0.535  0.2401E+02  0.1638E+03
      0.634  0.1984E+02  0.1682E+03
      0.734  0.7922E+01  0.1694E+03
      0.834  0.1853E+02  0.1699E+03
      0.934  0.1603E+02  0.1746E+03
      1.034  0.1460E+02  0.1768E+03
      1.133  0.1600E+02  0.1792E+03
      1.233  0.2347E+02  0.1812E+03
      1.333  0.2848E+02  0.1847E+03
      1.433  0.6317E+02  0.1881E+03
      1.533  0.5967E+02  0.1938E+03
      1.633  0.3065E+02  0.1989E+03
      1.732  0.8411E+01  0.2009E+03
      1.832  0.9597E+01  0.2018E+03
      1.932  0.6367E+01  0.2026E+03
      2.032  0.3863E+01  0.2031E+03
      2.132  0.0000E+00  0.2040E+03
      2.232  0.0000E+00  0.2040E+03
      2.331  0.0000E+00  0.2040E+03
      2.431  0.0000E+00  0.2040E+03
      2.531  0.0000E+00  0.2040E+03
      2.631  0.0000E+00  0.2040E+03
      2.731  0.0000E+00  0.2040E+03
      2.831  0.0000E+00  0.2040E+03
      2.930  0.0000E+00  0.2040E+03
      3.030  0.0000E+00  0.2040E+03
      3.130  0.0000E+00  0.2040E+03
      3.230  0.0000E+00  0.2040E+03
      3.330  0.0000E+00  0.2040E+03
      3.430  0.0000E+00  0.2040E+03
      3.529  0.0000E+00  0.2040E+03
      3.629  0.0000E+00  0.2040E+03
      3.729  0.0000E+00  0.2040E+03
      3.829  0.0000E+00  0.2040E+03
      3.929  0.0000E+00  0.2040E+03
      4.029  0.0000E+00  0.2040E+03
      4.128  0.0000E+00  0.2040E+03
