       N       E                     dE             d eps       ncg     rms          rms(c)
RMM:   1     0.124242068251E+04    0.12424E+04   -0.27904E+04   510   0.785E+02
RMM:   2     0.545155912789E+03   -0.69726E+03   -0.75369E+03   510   0.166E+02
RMM:   3     0.311175003758E+03   -0.23398E+03   -0.29805E+03   510   0.828E+01
RMM:   4     0.135160113051E+03   -0.17601E+03   -0.15134E+03   510   0.787E+01
RMM:   5     0.178480948628E+02   -0.11731E+03   -0.93792E+02   510   0.628E+01
RMM:   6    -0.444255905597E+02   -0.62274E+02   -0.47908E+02   510   0.436E+01
RMM:   7    -0.695190334365E+02   -0.25093E+02   -0.19318E+02   510   0.251E+01
RMM:   8    -0.758657756206E+02   -0.63467E+01   -0.55224E+01   510   0.133E+01
RMM:   9    -0.780568304395E+02   -0.21911E+01   -0.21015E+01  1468   0.753E+00
RMM:  10    -0.783790357064E+02   -0.32221E+00   -0.32973E+00  1757   0.287E+00
RMM:  11    -0.783820407029E+02   -0.30050E-02   -0.17774E-01  1715   0.727E-01
RMM:  12    -0.783852578386E+02   -0.32171E-02   -0.37236E-02  1819   0.303E-01    0.195E+01
RMM:  13    -0.683955850370E+02    0.99897E+01   -0.56510E+01  1436   0.130E+01    0.752E+00
RMM:  14    -0.738744504130E+02   -0.54789E+01   -0.32534E+00  1537   0.288E+00    0.652E+00
RMM:  15    -0.690549641038E+02    0.48195E+01   -0.14577E+00  1507   0.106E+00    0.525E+00
RMM:  16    -0.679381459146E+02    0.11168E+01   -0.11099E+00  1461   0.196E+00    0.202E+00
RMM:  17    -0.679236029257E+02    0.14543E-01   -0.24264E-01  1327   0.109E+00    0.841E-01
RMM:  18    -0.679202440361E+02    0.33589E-02   -0.14688E-01  1610   0.709E-01    0.528E-01
RMM:  19    -0.678965434911E+02    0.23701E-01   -0.19921E-02  1455   0.275E-01    0.373E-01
RMM:  20    -0.678833612343E+02    0.13182E-01   -0.13119E-02  1551   0.208E-01    0.119E-01
RMM:  21    -0.678796534618E+02    0.37078E-02   -0.40934E-03  1543   0.118E-01    0.641E-02
RMM:  22    -0.678743720958E+02    0.52814E-02   -0.13255E-03  1434   0.641E-02    0.396E-02
RMM:  23    -0.678713059262E+02    0.30662E-02   -0.46023E-04  1408   0.389E-02    0.225E-02
RMM:  24    -0.678716614458E+02   -0.35552E-03   -0.23175E-04  1196   0.300E-02    0.239E-02
RMM:  25    -0.678722317266E+02   -0.57028E-03   -0.15192E-04  1094   0.241E-02    0.110E-02
RMM:  26    -0.678721986760E+02    0.33051E-04   -0.24925E-04  1035   0.239E-02    0.826E-03
RMM:  27    -0.678720660900E+02    0.13259E-03   -0.18785E-04   989   0.180E-02    0.279E-03
RMM:  28    -0.678720546509E+02    0.11439E-04   -0.85785E-05   914   0.107E-02    0.198E-03
RMM:  29    -0.678720849480E+02   -0.30297E-04   -0.29901E-05   828   0.726E-03    0.854E-04
RMM:  30    -0.678721293548E+02   -0.44407E-04   -0.79842E-05   876   0.739E-03    0.650E-04
RMM:  31    -0.678721345596E+02   -0.52048E-05   -0.50968E-05   775   0.918E-03    0.480E-04
RMM:  32    -0.678721577365E+02   -0.23177E-04   -0.68778E-05   736   0.940E-03    0.113E-03
RMM:  33    -0.678721523147E+02    0.54218E-05   -0.63425E-06   674   0.379E-03    0.636E-04
RMM:  34    -0.678721327619E+02    0.19553E-04   -0.40615E-06   798   0.319E-03    0.211E-04
RMM:  35    -0.678721121386E+02    0.20623E-04   -0.94273E-06   957   0.492E-03    0.229E-04
RMM:  36    -0.678720855776E+02    0.26561E-04   -0.18438E-05  1031   0.728E-03    0.134E-04
RMM:  37    -0.678720819340E+02    0.36437E-05   -0.36741E-06   957   0.469E-03
   1 F= -.67872082E+02 E0= -.67872082E+02  d E =0.000000E+00
