 vasp.5.4.4.18Apr17-6-g9f103f2a35 (build Jun 08 2018 12:06:12) complex          
  
 executed on             LinuxIFC date 2019.06.06  06:18:26
 running on   72 total cores
 distrk:  each k-point on   72 cores,    1 groups
 distr:  one band on NCORES_PER_BAND=  24 cores,    3 groups


--------------------------------------------------------------------------------------------------------


 INCAR:
 POTCAR:    PAW_PBE Mg 13Apr2007                  
 POTCAR:    PAW_PBE O 08Apr2002                   
 POTCAR:    PAW_PBE H 15Jun2001                   

 ----------------------------------------------------------------------------- 
|                                                                             |
|           W    W    AA    RRRRR   N    N  II  N    N   GGGG   !!!           |
|           W    W   A  A   R    R  NN   N  II  NN   N  G    G  !!!           |
|           W    W  A    A  R    R  N N  N  II  N N  N  G       !!!           |
|           W WW W  AAAAAA  RRRRR   N  N N  II  N  N N  G  GGG   !            |
|           WW  WW  A    A  R   R   N   NN  II  N   NN  G    G                |
|           W    W  A    A  R    R  N    N  II  N    N   GGGG   !!!           |
|                                                                             |
|      For optimal performance we recommend to set                            |
|        NCORE= 4 - approx SQRT( number of cores)                             |
|      NCORE specifies how many cores store one orbital (NPAR=cpu/NCORE).     |
|      This setting can  greatly improve the performance of VASP for DFT.     |
|      The default,   NCORE=1            might be grossly inefficient         |
|      on modern multi-core architectures or massively parallel machines.     |
|      Do your own testing !!!!                                               |
|      Unfortunately you need to use the default for GW and RPA calculations. |
|      (for HF NCORE is supported but not extensively tested yet)             |
|                                                                             |
 ----------------------------------------------------------------------------- 


 ----------------------------------------------------------------------------- 
|                                                                             |
|  ADVICE TO THIS USER RUNNING 'VASP/VAMP'   (HEAR YOUR MASTER'S VOICE ...):  |
|                                                                             |
|      You have switched on vdW-DFT.                                          |
|      This routine was written and supplied by Jiri Klimes.                  |
|      We recommed that you carefully read and cite the following             |
|      publication                                                            |
|      J. Klimes, D.R. Bowler, A. Michelides                                  |
|        J. Phys.: Cond Matt. 22 022201 (2010)                                |
|      J. Klimes, D.R. Bowler, A. Michelides                                  |
|        Phys. Rev. B. 83, 195131 (2011)                                      |
|      and references therein.                                                |
|                                                                             |
 ----------------------------------------------------------------------------- 

 POTCAR:    PAW_PBE Mg 13Apr2007                  
   VRHFIN =Mg: s2p0                                                             
   LEXCH  = PE                                                                  
   EATOM  =    23.0369 eV,    1.6932 Ry                                         
                                                                                
   TITEL  = PAW_PBE Mg 13Apr2007                                                
   LULTRA =        F    use ultrasoft PP ?                                      
   IUNSCR =        1    unscreen: 0-lin 1-nonlin 2-no                           
   RPACOR =    1.500    partial core radius                                     
   POMASS =   24.305; ZVAL   =    2.000    mass and valenz                      
   RCORE  =    2.000    outmost cutoff radius                                   
   RWIGS  =    2.880; RWIGS  =    1.524    wigner-seitz radius (au A)           
   ENMAX  =  200.000; ENMIN  =  100.000 eV                                      
   RCLOC  =    1.506    cutoff for local pot                                    
   LCOR   =        T    correct aug charges                                     
   LPAW   =        T    paw PP                                                  
   EAUG   =  454.734                                                            
   DEXC   =    0.000                                                            
   RMAX   =    2.045    core radius for proj-oper                               
   RAUG   =    1.300    factor for augmentation sphere                          
   RDEP   =    2.025    radius for radial grids                                 
   RDEPT  =    1.942    core radius for aug-charge                              
                                                                                
   Atomic configuration                                                         
    6 entries                                                                   
     n  l   j            E        occ.                                          
     1  0  0.50     -1259.6230   2.0000                                         
     2  0  0.50       -79.8442   2.0000                                         
     2  1  1.50       -46.6121   6.0000                                         
     3  0  0.50        -4.7055   2.0000                                         
     3  1  0.50        -1.3660   0.0000                                         
     3  2  1.50        -1.3606   0.0000                                         
   Description                                                                  
     l       E           TYP  RCUT    TYP  RCUT                                 
     0     -4.7054661     23  2.000                                             
     0     27.2116520     23  2.000                                             
     1      1.3605826     23  2.000                                             
     1     27.2116520     23  2.000                                             
     2     -1.3605826     23  2.000                                             
  local pseudopotential read in
  partial core-charges read in
  partial kinetic energy density read in
  atomic valenz-charges read in
  non local Contribution for L=           0  read in
    real space projection operators read in
  non local Contribution for L=           0  read in
    real space projection operators read in
  non local Contribution for L=           1  read in
    real space projection operators read in
  non local Contribution for L=           1  read in
    real space projection operators read in
  non local Contribution for L=           2  read in
    real space projection operators read in
    PAW grid and wavefunctions read in
 
   number of l-projection  operators is LMAX  =           5
   number of lm-projection operators is LMMAX =          13
 
 POTCAR:    PAW_PBE O 08Apr2002                   
   VRHFIN =O: s2p4                                                              
   LEXCH  = PE                                                                  
   EATOM  =   432.3788 eV,   31.7789 Ry                                         
                                                                                
   TITEL  = PAW_PBE O 08Apr2002                                                 
   LULTRA =        F    use ultrasoft PP ?                                      
   IUNSCR =        1    unscreen: 0-lin 1-nonlin 2-no                           
   RPACOR =    1.200    partial core radius                                     
   POMASS =   16.000; ZVAL   =    6.000    mass and valenz                      
   RCORE  =    1.520    outmost cutoff radius                                   
   RWIGS  =    1.550; RWIGS  =    0.820    wigner-seitz radius (au A)           
   ENMAX  =  400.000; ENMIN  =  300.000 eV                                      
   ICORE  =        2    local potential                                         
   LCOR   =        T    correct aug charges                                     
   LPAW   =        T    paw PP                                                  
   EAUG   =  605.392                                                            
   DEXC   =    0.000                                                            
   RMAX   =    1.553    core radius for proj-oper                               
   RAUG   =    1.300    factor for augmentation sphere                          
   RDEP   =    1.550    radius for radial grids                                 
   RDEPT  =    1.329    core radius for aug-charge                              
                                                                                
   Atomic configuration                                                         
    4 entries                                                                   
     n  l   j            E        occ.                                          
     1  0  0.50      -514.6923   2.0000                                         
     2  0  0.50       -23.9615   2.0000                                         
     2  1  0.50        -9.0305   4.0000                                         
     3  2  1.50        -9.5241   0.0000                                         
   Description                                                                  
     l       E           TYP  RCUT    TYP  RCUT                                 
     0    -23.9615318     23  1.200                                             
     0     -9.5240782     23  1.200                                             
     1     -9.0304911     23  1.520                                             
     1      8.1634956     23  1.520                                             
     2     -9.5240782      7  1.500                                             
  local pseudopotential read in
  partial core-charges read in
  partial kinetic energy density read in
  kinetic energy density of atom read in
  atomic valenz-charges read in
  non local Contribution for L=           0  read in
    real space projection operators read in
  non local Contribution for L=           0  read in
    real space projection operators read in
  non local Contribution for L=           1  read in
    real space projection operators read in
  non local Contribution for L=           1  read in
    real space projection operators read in
    PAW grid and wavefunctions read in
 
   number of l-projection  operators is LMAX  =           4
   number of lm-projection operators is LMMAX =           8
 
 POTCAR:    PAW_PBE H 15Jun2001                   
   VRHFIN =H: ultrasoft test                                                    
   LEXCH  = PE                                                                  
   EATOM  =    12.4884 eV,    0.9179 Ry                                         
                                                                                
   TITEL  = PAW_PBE H 15Jun2001                                                 
   LULTRA =        F    use ultrasoft PP ?                                      
   IUNSCR =        0    unscreen: 0-lin 1-nonlin 2-no                           
   RPACOR =    0.000    partial core radius                                     
   POMASS =    1.000; ZVAL   =    1.000    mass and valenz                      
   RCORE  =    1.100    outmost cutoff radius                                   
   RWIGS  =    0.700; RWIGS  =    0.370    wigner-seitz radius (au A)           
   ENMAX  =  250.000; ENMIN  =  200.000 eV                                      
   RCLOC  =    0.701    cutoff for local pot                                    
   LCOR   =        T    correct aug charges                                     
   LPAW   =        T    paw PP                                                  
   EAUG   =  400.000                                                            
   RMAX   =    1.123    core radius for proj-oper                               
   RAUG   =    1.200    factor for augmentation sphere                          
   RDEP   =    1.112    radius for radial grids                                 
   RDEPT  =    0.926    core radius for aug-charge                              
                                                                                
   Atomic configuration                                                         
    2 entries                                                                   
     n  l   j            E        occ.                                          
     1  0  0.50        -6.4927   1.0000                                         
     2  1  0.50        -3.4015   0.0000                                         
   Description                                                                  
     l       E           TYP  RCUT    TYP  RCUT                                 
     0     -6.4927494     23  1.100                                             
     0      6.8029130     23  1.100                                             
     1     -4.0817478     23  1.100                                             
  local pseudopotential read in
  atomic valenz-charges read in
  non local Contribution for L=           0  read in
    real space projection operators read in
  non local Contribution for L=           0  read in
    real space projection operators read in
  non local Contribution for L=           1  read in
    real space projection operators read in
    PAW grid and wavefunctions read in
 
   number of l-projection  operators is LMAX  =           3
   number of lm-projection operators is LMMAX =           5
 
 Optimization of the real space projectors (new method)

 maximal supplied QI-value         = 18.90
 optimisation between [QCUT,QGAM] = [ 11.53, 23.24] = [ 37.21,151.29] Ry 
 Optimized for a Real-space Cutoff    1.28 Angstroem

   l    n(q)    QCUT    max X(q) W(low)/X(q) W(high)/X(q)  e(spline) 
   0      9    11.527    28.265    0.62E-04    0.53E-04    0.73E-07
   0      9    11.527    10.429    0.52E-04    0.40E-04    0.58E-07
   1      8    11.527    13.073    0.98E-04    0.18E-03    0.86E-07
   1      8    11.527     9.625    0.79E-04    0.15E-03    0.74E-07
   2      8    11.527     4.652    0.22E-03    0.72E-04    0.47E-07
 Optimization of the real space projectors (new method)

 maximal supplied QI-value         = 24.76
 optimisation between [QCUT,QGAM] = [ 11.64, 23.27] = [ 37.91,151.63] Ry 
 Optimized for a Real-space Cutoff    1.14 Angstroem

   l    n(q)    QCUT    max X(q) W(low)/X(q) W(high)/X(q)  e(spline) 
   0      8    11.635    20.381    0.10E-03    0.33E-03    0.24E-06
   0      8    11.635    15.268    0.11E-03    0.35E-03    0.26E-06
   1      7    11.635     5.964    0.24E-03    0.31E-03    0.30E-06
   1      7    11.635     5.382    0.22E-03    0.25E-03    0.26E-06
 Optimization of the real space projectors (new method)

 maximal supplied QI-value         = 34.20
 optimisation between [QCUT,QGAM] = [ 11.63, 23.26] = [ 37.87,151.49] Ry 
 Optimized for a Real-space Cutoff    1.21 Angstroem

   l    n(q)    QCUT    max X(q) W(low)/X(q) W(high)/X(q)  e(spline) 
   0      8    11.629    19.460    0.17E-03    0.34E-03    0.21E-06
   0      8    11.629    12.209    0.16E-03    0.33E-03    0.21E-06
   1      8    11.629     4.655    0.18E-03    0.16E-03    0.26E-06

 ----------------------------------------------------------------------------- 
|                                                                             |
|  ADVICE TO THIS USER RUNNING 'VASP/VAMP'   (HEAR YOUR MASTER'S VOICE ...):  |
|                                                                             |
|      You enforced a specific xc-type in the INCAR file,                     |
|      a different type was found on the POTCAR file                          |
|          I HOPE YOU KNOW, WHAT YOU ARE  DOING                               |
|                                                                             |
 ----------------------------------------------------------------------------- 

  PAW_PBE Mg 13Apr2007                  :
 energy of atom  1       EATOM=  -23.0369
 kinetic energy error for atom=    0.0000 (will be added to EATOM!!)
  PAW_PBE O 08Apr2002                   :
 energy of atom  2       EATOM= -432.3788
 kinetic energy error for atom=    0.0208 (will be added to EATOM!!)
  PAW_PBE H 15Jun2001                   :
 energy of atom  3       EATOM=  -12.4884
 kinetic energy error for atom=    0.0014 (will be added to EATOM!!)
 
 
 POSCAR: Mg   O    H                             
  positions in direct lattice
  velocities in cartesian coordinates
 exchange correlation table for  LEXCH =       42
   RHO(1)=    0.500       N(1)  =     2000
   RHO(2)=  100.500       N(2)  =     4000

 VTST: version 3.2, (02/03/18)

 CHAIN: initializing optimizer
 
 OPT: Using VASP Dynamics algorithm
 CHAIN: Read ICHAIN            0
 
 POSCAR: Mg   O    H                             
  positions in direct lattice
  velocities in cartesian coordinates
 


--------------------------------------------------------------------------------------------------------


 ion  position               nearest neighbor table
   1  0.000  0.000  0.000-   7 3.19  25 3.19  19 3.19  10 3.19   4 3.19  13 3.19  44 3.19  32 3.19
                            28 3.19
   2  0.000  0.001  0.158-  33 3.11  45 3.12  29 3.12  28 3.15  32 3.15  44 3.15  26 3.18  14 3.18
                            20 3.18   5 3.18   8 3.19  11 3.19
   3  0.998  1.000  0.331-  46 2.16  21 3.21   9 3.22  27 3.24   6 3.26  12 3.26  15 3.26  45 3.57
                            29 3.59  33 3.62
   4  0.000  0.333  0.000-  22 3.19  13 3.19  19 3.19  16 3.19   1 3.19   7 3.19  40 3.19  30 3.19
                            28 3.19
   5  0.001  0.334  0.157-  30 3.13  28 3.13  40 3.13  41 3.15  29 3.17  31 3.17  14 3.18  17 3.18
                             8 3.18   2 3.18  23 3.19  20 3.19
   6  1.000  0.334  0.311-  31 3.06  29 3.07  41 3.08  21 3.17   9 3.20  15 3.20  18 3.23  24 3.26
                             3 3.26
   7  0.000  0.667  0.000-   1 3.19  10 3.19  25 3.19  16 3.19  22 3.19   4 3.19  42 3.19  32 3.19
                            30 3.19
   8  0.000  0.667  0.157-  32 3.13  30 3.13  42 3.13  33 3.14  31 3.16  43 3.16  26 3.18  23 3.18
                             5 3.18  17 3.19   2 3.19  11 3.19
   9  0.001  0.670  0.314-  43 3.15  33 3.15  31 3.15  12 3.17  27 3.20   6 3.20  18 3.21   3 3.22
                            24 3.27
  10  0.333  0.000  0.000-  16 3.19   7 3.19  19 3.19   1 3.19  22 3.19  13 3.19  32 3.19  34 3.19
                            38 3.19
  11  0.334  0.001  0.157-  34 3.13  38 3.13  32 3.14  33 3.15  35 3.17  39 3.17  20 3.18  23 3.18
                            14 3.18  17 3.18   2 3.19   8 3.19
  12  0.333  0.001  0.311-  35 3.07  39 3.08  33 3.08   9 3.17  15 3.19  21 3.19  24 3.23   3 3.26
                            18 3.26
  13  0.333  0.333  0.000-  22 3.19   4 3.19  10 3.19   1 3.19  25 3.19  16 3.19  28 3.19  36 3.19
                            34 3.19
  14  0.334  0.334  0.157-  36 3.13  34 3.13  28 3.13  37 3.14  29 3.16  35 3.16   5 3.18   2 3.18
                            11 3.18  23 3.18  17 3.19  26 3.19
  15  0.335  0.336  0.314-  35 3.15  29 3.15  37 3.15  27 3.17  12 3.19   6 3.20  24 3.21  18 3.21
                             3 3.26
  16  0.333  0.667  0.000-  10 3.19  19 3.19   7 3.19  25 3.19   4 3.19  13 3.19  38 3.19  30 3.19
                            36 3.19
  17  0.334  0.667  0.158-  37 3.11  31 3.12  39 3.12  38 3.15  36 3.15  30 3.15  20 3.18   5 3.18
                            11 3.18   8 3.19  14 3.19  26 3.19
  18  0.331  0.665  0.331-  51 2.17   9 3.21  15 3.21   6 3.23  27 3.26  12 3.26  21 3.27  31 3.57
                            39 3.59  37 3.61
  19  0.667  0.000  0.000-  25 3.19  16 3.19   1 3.19  10 3.19   4 3.19  22 3.19  38 3.19  44 3.19
                            40 3.19
  20  0.667  0.000  0.157-  44 3.13  40 3.13  38 3.13  41 3.14  39 3.16  45 3.16  11 3.18  17 3.18
                            26 3.18   2 3.18  23 3.19   5 3.19
  21  0.668  0.002  0.314-  39 3.15  45 3.15  41 3.16   6 3.17  27 3.19  12 3.19   3 3.21  24 3.21
                            18 3.27
  22  0.667  0.333  0.000-  13 3.19   4 3.19  10 3.19  25 3.19   7 3.19  19 3.19  34 3.19  42 3.19
                            40 3.19
  23  0.667  0.334  0.158-  41 3.11  35 3.12  43 3.13  42 3.15  40 3.15  34 3.15   8 3.18  11 3.18
                            26 3.18  14 3.18   5 3.19  20 3.19
  24  0.665  0.332  0.331-  49 2.17  15 3.21  21 3.21  12 3.23   6 3.26  27 3.26   9 3.27  35 3.57
                            43 3.59  41 3.61
  25  0.667  0.667  0.000-   1 3.19  19 3.19   7 3.19  16 3.19  22 3.19  13 3.19  36 3.19  42 3.19
                            44 3.19
  26  0.668  0.667  0.157-  44 3.13  42 3.13  36 3.14  37 3.15  43 3.17  45 3.17   8 3.18   2 3.18
                            20 3.18  23 3.18  17 3.19  14 3.19
  27  0.667  0.668  0.311-  45 3.07  43 3.08  37 3.08  15 3.17  21 3.19   9 3.20   3 3.24  18 3.26
                            24 3.26
  28  0.111  0.222  0.080-   5 3.13  14 3.13   2 3.15  44 3.19  32 3.19  40 3.19  34 3.19  36 3.19
                            30 3.19   1 3.19  13 3.19   4 3.19
  29  0.112  0.220  0.236-   6 3.07   2 3.12  45 3.14  15 3.15  33 3.15  14 3.16   5 3.17  35 3.19
                            37 3.19  41 3.22  31 3.23   3 3.59
  30  0.111  0.556  0.080-   5 3.13   8 3.13  17 3.15  32 3.19  42 3.19  38 3.19  40 3.19  36 3.19
                            28 3.19  16 3.19   7 3.19   4 3.19
  31  0.115  0.559  0.236-   6 3.06  17 3.12  39 3.14   9 3.15  37 3.15   8 3.16   5 3.17  33 3.18
                            43 3.19  41 3.23  29 3.23  18 3.57
  32  0.111  0.889  0.080-   8 3.13  11 3.14   2 3.15  28 3.19  34 3.19  44 3.19  30 3.19  42 3.19
                            38 3.19  10 3.19   1 3.19   7 3.19
  33  0.110  0.889  0.235-  12 3.08   2 3.11   8 3.14  29 3.15  45 3.15   9 3.15  11 3.15  31 3.18
                            43 3.19  39 3.22  35 3.23   3 3.62
  34  0.444  0.222  0.080-  11 3.13  14 3.13  23 3.15  38 3.19  40 3.19  32 3.19  42 3.19  28 3.19
                            36 3.19  22 3.19  10 3.19  13 3.19
  35  0.448  0.226  0.236-  12 3.07  23 3.12  43 3.14  15 3.15  41 3.15  14 3.16  11 3.17  37 3.18
                            29 3.19  33 3.23  39 3.23  24 3.57
  36  0.444  0.556  0.080-  14 3.13  26 3.14  17 3.15  42 3.19  38 3.19  44 3.19  30 3.19  28 3.19
                            34 3.19  25 3.19  13 3.19  16 3.19
  37  0.443  0.556  0.235-  27 3.08  17 3.11  14 3.14  39 3.15  15 3.15  26 3.15  31 3.15  35 3.18
                            29 3.19  43 3.22  45 3.23  18 3.61
  38  0.444  0.889  0.080-  11 3.13  20 3.13  17 3.15  40 3.19  34 3.19  44 3.19  36 3.19  30 3.19
                            32 3.19  19 3.19  16 3.19  10 3.19
  39  0.445  0.886  0.236-  12 3.08  17 3.12  31 3.14  37 3.15  21 3.15  20 3.16  11 3.17  41 3.19
                            45 3.19  33 3.22  35 3.23  18 3.59
  40  0.778  0.222  0.080-  20 3.13   5 3.13  23 3.15  38 3.19  34 3.19  44 3.19  28 3.19  30 3.19
                            42 3.19   4 3.19  19 3.19  22 3.19
  41  0.776  0.222  0.235-   6 3.08  23 3.11  20 3.14  35 3.15  43 3.15   5 3.15  21 3.16  45 3.18
                            39 3.19  29 3.22  31 3.23  24 3.61
  42  0.778  0.556  0.080-  26 3.13   8 3.13  23 3.15  36 3.19  44 3.19  30 3.19  32 3.19  34 3.19
                            40 3.19  25 3.19   7 3.19  22 3.19
  43  0.778  0.553  0.236-  27 3.08  23 3.13  35 3.14   9 3.15  41 3.15   8 3.16  26 3.17  31 3.19
                            33 3.19  37 3.22  45 3.23  24 3.59
  44  0.778  0.889  0.080-  26 3.13  20 3.13   2 3.15  28 3.19  40 3.19  42 3.19  32 3.19  38 3.19
                            36 3.19   1 3.19  19 3.19  25 3.19
  45  0.782  0.893  0.236-  27 3.07   2 3.12  29 3.14  33 3.15  21 3.15  20 3.16  26 3.17  41 3.18
                            39 3.19  37 3.23  43 3.23   3 3.57
  46  0.993  0.996  0.397-  53 0.99  52 0.99   3 2.16
  47  0.249  0.916  0.415-  54 0.98  55 1.00
  48  0.923  0.258  0.414-  56 0.98  57 1.00
  49  0.659  0.326  0.397-  59 0.99  58 0.99  24 2.17
  50  0.580  0.582  0.414-  60 0.98  61 1.00
  51  0.319  0.654  0.397-  63 0.99  62 0.99  18 2.17
  52  0.983  0.083  0.411-  46 0.99
  53  0.078  0.983  0.411-  46 0.99
  54  0.353  0.018  0.414-  47 0.98
  55  0.223  0.891  0.385-  47 1.00
  56  0.026  0.361  0.414-  48 0.98
  57  0.896  0.232  0.385-  48 1.00
  58  0.645  0.411  0.411-  49 0.99
  59  0.746  0.317  0.411-  49 0.99
  60  0.682  0.685  0.414-  50 0.98
  61  0.554  0.557  0.385-  50 1.00
  62  0.309  0.741  0.411-  51 0.99
  63  0.405  0.643  0.411-  51 0.99
 
  LATTYP: Found a hexagonal cell.
 ALAT       =     9.5557527542
 C/A-ratio  =     3.4141837076
  
  Lattice vectors:
  
 A1 = (   9.5557527542,   0.0000000000,   0.0000000000)
 A2 = (  -4.7778763771,   8.2755246374,   0.0000000000)
 A3 = (   0.0000000000,   0.0000000000,  32.6250953674)


Analysis of symmetry for initial positions (statically):
=====================================================================
 Subroutine PRICEL returns:
 Original cell was already a primitive cell.
 

 Routine SETGRP: Setting up the symmetry group for a 
 hexagonal supercell.


 Subroutine GETGRP returns: Found  1 space group operations
 (whereof  1 operations were pure point group operations)
 out of a pool of 24 trial point group operations.


The static configuration has the point symmetry C_1 .


Analysis of symmetry for dynamics (positions and initial velocities):
=====================================================================
 Subroutine PRICEL returns:
 Original cell was already a primitive cell.
 

 Routine SETGRP: Setting up the symmetry group for a 
 hexagonal supercell.


 Subroutine GETGRP returns: Found  1 space group operations
 (whereof  1 operations were pure point group operations)
 out of a pool of 24 trial point group operations.


The dynamic configuration has the point symmetry C_1 .


Analysis of constrained symmetry for selective dynamics:
=====================================================================
 Subroutine PRICEL returns:
 Original cell was already a primitive cell.
 

 Routine SETGRP: Setting up the symmetry group for a 
 hexagonal supercell.


 Subroutine GETGRP returns: Found  1 space group operations
 (whereof  1 operations were pure point group operations)
 out of a pool of 24 trial point group operations.


The constrained configuration has the point symmetry C_1 .


 Subroutine INISYM returns: Found  1 space group operations
 (whereof  1 operations are pure point group operations),
 and found     1 'primitive' translations

 
 
 KPOINTS: Auto                                    

Automatic generation of k-mesh.
Space group operators:
 irot       det(A)        alpha          n_x          n_y          n_z        tau_x        tau_y        tau_z
    1     1.000000     0.000000     1.000000     0.000000     0.000000     0.000000     0.000000     0.000000
 
 Subroutine IBZKPT returns following result:
 ===========================================
 
 Found      5 irreducible k-points:
 
 Following reciprocal coordinates:
            Coordinates               Weight
  0.000000  0.000000  0.000000      1.000000
  0.333333 -0.000000  0.000000      2.000000
  0.000000  0.333333  0.000000      2.000000
  0.333333  0.333333  0.000000      2.000000
 -0.333333  0.333333  0.000000      2.000000
 
 Following cartesian coordinates:
            Coordinates               Weight
  0.000000  0.000000  0.000000      1.000000
  0.034883  0.020140  0.000000      2.000000
  0.000000  0.040279  0.000000      2.000000
  0.034883  0.060419  0.000000      2.000000
 -0.034883  0.020140  0.000000      2.000000
 
 TETIRR: Found     24 inequivalent tetrahedra from       54


--------------------------------------------------------------------------------------------------------




 Dimension of arrays:
   k-points           NKPTS =      5   k-points in BZ     NKDIM =      5   number of bands    NBANDS=    102
   number of dos      NEDOS =    301   number of ions     NIONS =     63
   non local maximal  LDIM  =      5   non local SUM 2l+1 LMDIM =     13
   total plane-waves  NPLWV = ******
   max r-space proj   IRMAX =   4509   max aug-charges    IRDMAX=  21536
   dimension x,y,z NGX =    72 NGY =   72 NGZ =  250
   dimension x,y,z NGXF=   144 NGYF=  144 NGZF=  500
   support grid    NGXF=   144 NGYF=  144 NGZF=  500
   ions per type =              45   6  12
   NGX,Y,Z   is equivalent  to a cutoff of  12.53, 12.53, 12.74 a.u.
   NGXF,Y,Z  is equivalent  to a cutoff of  25.05, 25.05, 25.48 a.u.

 SYSTEM =  Mg_slab_in_a_box                        
 POSCAR =  Mg   O    H                             

 Startparameter for this run:
   NWRITE =      2    write-flag & timer
   PREC   = accura    normal or accurate (medium, high low for compatibility)
   ISTART =      0    job   : 0-new  1-cont  2-samecut
   ICHARG =      2    charge: 1-file 2-atom 10-const
   ISPIN  =      1    spin polarized calculation?
   LNONCOLLINEAR =      F non collinear calculations
   LSORBIT =      F    spin-orbit coupling
   INIWAV =      1    electr: 0-lowe 1-rand  2-diag
   LASPH  =      T    aspherical Exc in radial PAW
   METAGGA=      F    non-selfconsistent MetaGGA calc.

 Electronic Relaxation 1
   ENCUT  =  520.0 eV  38.22 Ry    6.18 a.u.  17.77 17.77 60.66*2*pi/ulx,y,z
   ENINI  =  520.0     initial cutoff
   ENAUG  =  605.4 eV  augmentation charge cutoff
   NELM   =    300;   NELMIN=  6; NELMDL=-12     # of ELM steps 
   EDIFF  = 0.5E-05   stopping-criterion for ELM
   LREAL  =      T    real-space projection
   NLSPLINE    = F    spline interpolate recip. space projectors
   LCOMPAT=      F    compatible to vasp.4.4
   GGA_COMPAT  = T    GGA compatible to vasp.4.4-vasp.4.6
   LMAXPAW     = -100 max onsite density
   LMAXMIX     =    2 max onsite mixed and CHGCAR
   VOSKOWN=      0    Vosko Wilk Nusair interpolation
   ROPT   =   -0.00025  -0.00025  -0.00025
 Ionic relaxation
   EDIFFG = 0.5E-04   stopping-criterion for IOM
   NSW    =      0    number of steps for IOM
   NBLOCK =      1;   KBLOCK =      1    inner block; outer block 
   IBRION =     -1    ionic relax: 0-MD 1-quasi-New 2-CG
   NFREE  =      0    steps in history (QN), initial steepest desc. (CG)
   ISIF   =      2    stress and relaxation
   IWAVPR =     10    prediction:  0-non 1-charg 2-wave 3-comb
   ISYM   =      2    0-nonsym 1-usesym 2-fastsym
   LCORR  =      T    Harris-Foulkes like correction to forces

   POTIM  = 0.5000    time-step for ionic-motion
   TEIN   =    0.0    initial temperature
   TEBEG  =    0.0;   TEEND  =   0.0 temperature during run
   SMASS  =  -3.00    Nose mass-parameter (am)
   estimated Nose-frequenzy (Omega)   =  0.10E-29 period in steps =****** mass=  -0.209E-26a.u.
   SCALEE = 1.0000    scale energy and forces
   NPACO  =    256;   APACO  = 16.0  distance and # of slots for P.C.
   PSTRESS=    0.0 pullay stress

  Mass of Ions in am
   POMASS =  24.30 16.00  1.00
  Ionic Valenz
   ZVAL   =   2.00  6.00  1.00
  Atomic Wigner-Seitz radii
   RWIGS  =  -1.00 -1.00 -1.00
  virtual crystal weights 
   VCA    =   1.00  1.00  1.00
   NELECT =     138.0000    total number of electrons
   NUPDOWN=      -1.0000    fix difference up-down

 DOS related values:
   EMIN   =  10.00;   EMAX   =-10.00  energy-range for DOS
   EFERMI =   0.00
   ISMEAR =    -5;   SIGMA  =   0.20  broadening in eV -4-tet -1-fermi 0-gaus

 Electronic relaxation 2 (details)
   IALGO  =     48    algorithm
   LDIAG  =      T    sub-space diagonalisation (order eigenvalues)
   LSUBROT=      F    optimize rotation matrix (better conditioning)
   TURBO    =      0    0=normal 1=particle mesh
   IRESTART =      0    0=no restart 2=restart with 2 vectors
   NREBOOT  =      0    no. of reboots
   NMIN     =      0    reboot dimension
   EREF     =   0.00    reference energy to select bands
   IMIX   =      4    mixing-type and parameters
     AMIX     =   0.40;   BMIX     =  1.00
     AMIX_MAG =   1.60;   BMIX_MAG =  1.00
     AMIN     =   0.10
     WC   =   100.;   INIMIX=   1;  MIXPRE=   1;  MAXMIX= -45

 Intra band minimization:
   WEIMIN = 0.0000     energy-eigenvalue tresh-hold
   EBREAK =  0.12E-07  absolut break condition
   DEPER  =   0.30     relativ break condition  

   TIME   =   0.40     timestep for ELM

  volume/ion in A,a.u.               =      40.95       276.36
  Fermi-wavevector in a.u.,A,eV,Ry     =   0.616828  1.165635  5.176694  0.380476
  Thomas-Fermi vector in A             =   1.674695
 
 Write flags
   LWAVE        =      F    write WAVECAR
   LDOWNSAMPLE  =      F    k-point downsampling of WAVECAR
   LCHARG       =      T    write CHGCAR
   LVTOT        =      F    write LOCPOT, total local potential
   LVHAR        =      T    write LOCPOT, Hartree potential only
   LELF         =      F    write electronic localiz. function (ELF)
   LORBIT       =      0    0 simple, 1 ext, 2 COOP (PROOUT), +10 PAW based schemes


 Dipole corrections
   LMONO  =      F    monopole corrections only (constant potential shift)
   LDIPOL =      T    correct potential (dipole corrections)
   IDIPOL =      3    1-x, 2-y, 3-z, 4-all directions 
   EPSILON=  1.0000000 bulk dielectric constant

 Exchange correlation treatment:
   GGA     =    BO    GGA type
   LEXCH   =    42    internal setting for exchange type
   VOSKOWN=      0    Vosko Wilk Nusair interpolation
   LHFCALC =     F    Hartree Fock is set to
   LHFONE  =     F    Hartree Fock one center treatment
   AEXX    =    0.0000 exact exchange contribution

 vdW DFT:
   LUSE_VDW   =     T    switch on vdW DFT
   Zab_VDW    =-.8491    correlation parameter
   PARAM1     =0.1833
   PARAM2     =0.2200
   PARAM3     =0.0000
   -- rVV10 --
   BPARAM     = 6.3000
   CPARAM     = 0.0093

 Linear response parameters
   LEPSILON=     F    determine dielectric tensor
   LRPA    =     F    only Hartree local field effects (RPA)
   LNABLA  =     F    use nabla operator in PAW spheres
   LVEL    =     F    velocity operator in full k-point grid
   LINTERFAST=   F  fast interpolation
   KINTER  =     0    interpolate to denser k-point grid
   CSHIFT  =0.1000    complex shift for real part using Kramers Kronig
   OMEGAMAX=  -1.0    maximum frequency
   DEG_THRESHOLD= 0.2000000E-02 threshold for treating states as degnerate
   RTIME   =   -0.100 relaxation time in fs
  (WPLASMAI=    0.000 imaginary part of plasma frequency in eV, 0.658/RTIME)
   DFIELD  = 0.0000000 0.0000000 0.0000000 field for delta impulse in time
 
 Orbital magnetization related:
   ORBITALMAG=     F  switch on orbital magnetization
   LCHIMAG   =     F  perturbation theory with respect to B field
   DQ        =  0.001000  dq finite difference perturbation B field
   LLRAUG    =     F  two centre corrections for induced B field



--------------------------------------------------------------------------------------------------------


 Static calculation
 charge density and potential will be updated during run
 non-spin polarized calculation
 RMM-DIIS sequential band-by-band
 perform sub-space diagonalisation
    before iterative eigenvector-optimisation
 modified Broyden-mixing scheme, WC =      100.0
 initial mixing is a Kerker type mixing with AMIX =  0.4000 and BMIX =      1.0000
 Hartree-type preconditioning will be used
 using additional bands           33
 real space projection scheme for non local part
 use partial core corrections
 calculate Harris-corrections to forces 
   (improved forces if not selfconsistent)
 use gradient corrections 
 use of overlap-Matrix (Vanderbilt PP)
 Fermi weights with tetrahedron method with Bloechl corrections


--------------------------------------------------------------------------------------------------------


  energy-cutoff  :      520.00
  volume of cell :     2579.96
      direct lattice vectors                 reciprocal lattice vectors
     9.555752754  0.000000000  0.000000000     0.104649003  0.060419130  0.000000000
    -4.777876377  8.275524637  0.000000000     0.000000000  0.120838260  0.000000000
     0.000000000  0.000000000 32.625095367     0.000000000  0.000000000  0.030651251

  length of vectors
     9.555752754  9.555752754 32.625095367     0.120838260  0.120838260  0.030651251


 
 k-points in units of 2pi/SCALE and weight: Auto                                    
   0.00000000  0.00000000  0.00000000       0.111
   0.03488300  0.02013971  0.00000000       0.222
   0.00000000  0.04027942  0.00000000       0.222
   0.03488300  0.06041913  0.00000000       0.222
  -0.03488300  0.02013971  0.00000000       0.222
 
 k-points in reciprocal lattice and weights: Auto                                    
   0.00000000  0.00000000  0.00000000       0.111
   0.33333333 -0.00000000  0.00000000       0.222
   0.00000000  0.33333333  0.00000000       0.222
   0.33333333  0.33333333  0.00000000       0.222
  -0.33333333  0.33333333  0.00000000       0.222
 
 position of ions in fractional coordinates (direct lattice) 
   0.00000000  0.00000000  0.00000000
   0.00043423  0.00058371  0.15825199
   0.99817499  0.99968547  0.33104943
   0.00000001  0.33333336  0.00000000
   0.00091403  0.33409026  0.15746449
   0.99950936  0.33428042  0.31070609
   0.00000002  0.66666672  0.00000000
   0.00026132  0.66680708  0.15743242
   0.00149502  0.66963623  0.31428383
   0.33333334  0.00000000  0.00000000
   0.33427909  0.00073660  0.15747632
   0.33323454  0.00102990  0.31103050
   0.33333335  0.33333336  0.00000000
   0.33365361  0.33351801  0.15741769
   0.33513683  0.33597411  0.31418199
   0.33333336  0.66666672  0.00000000
   0.33379516  0.66725526  0.15825548
   0.33057904  0.66517742  0.33089441
   0.66666668  0.00000000  0.00000000
   0.66695523  0.00011719  0.15742793
   0.66802341  0.00244263  0.31447233
   0.66666668  0.33333336  0.00000000
   0.66714476  0.33397350  0.15825194
   0.66480031  0.33246796  0.33094812
   0.66666670  0.66666672  0.00000000
   0.66763731  0.66742847  0.15749544
   0.66650712  0.66804052  0.31110222
   0.11111113  0.22222222  0.07982145
   0.11183484  0.21988226  0.23613116
   0.11111114  0.55555561  0.07982145
   0.11496576  0.55947341  0.23613396
   0.11111116  0.88888894  0.07982145
   0.10962394  0.88940870  0.23544201
   0.44444450  0.22222222  0.07982145
   0.44826479  0.22589905  0.23613759
   0.44444450  0.55555561  0.07982145
   0.44297621  0.55607586  0.23545103
   0.44444451  0.88888894  0.07982145
   0.44508707  0.88647504  0.23621655
   0.77777779  0.22222222  0.07982145
   0.77599512  0.22245802  0.23540468
   0.77777781  0.55555561  0.07982145
   0.77828402  0.55310701  0.23626964
   0.77777784  0.88888894  0.07982145
   0.78171288  0.89278560  0.23623206
   0.99340110  0.99586225  0.39738255
   0.24945857  0.91629661  0.41456114
   0.92310284  0.25822200  0.41447940
   0.65885563  0.32627270  0.39731571
   0.58016872  0.58196479  0.41446483
   0.31926486  0.65417637  0.39747409
   0.98349795  0.08278448  0.41102031
   0.07828699  0.98324805  0.41123913
   0.35299180  0.01811915  0.41384088
   0.22271088  0.89109991  0.38482278
   0.02567900  0.36102246  0.41351734
   0.89581523  0.23180110  0.38482854
   0.64548197  0.41113079  0.41096610
   0.74611906  0.31749630  0.41111307
   0.68229966  0.68520648  0.41387339
   0.55409262  0.55687937  0.38468802
   0.30855309  0.74069688  0.41110326
   0.40531243  0.64318405  0.41125276
 
 position of ions in cartesian coordinates  (Angst):
   0.00000000  0.00000000  0.00000000
   0.00136053  0.00483051  5.16298624
   4.76193979  8.27292173 10.80051929
  -1.59262550  2.75850844  0.00000000
  -1.58750770  2.76477215  5.13729417
   7.95391378  2.76634589 10.13681584
  -3.18525100  5.51701689  0.00000000
  -3.18342474  5.51817844  5.13624782
  -3.18515312  5.54159111 10.25353988
   3.18525100  0.00000000  0.00000000
   3.19076901  0.00609572  5.13767993
   3.17938615  0.00852294 10.14739980
   1.59262550  2.75850844  0.00000000
   1.59480359  2.76003655  5.13576703
   1.59724191  2.78036202 10.25021736
  -0.00000001  5.51701689  0.00000000
   0.00160092  5.52188735  5.16310007
  -0.01920391  5.50469217 10.79546165
   6.37050200  0.00000000  0.00000000
   6.37269935  0.00096981  5.13610128
   6.37179596  0.02021403 10.25968972
   4.77787638  2.75850844  0.00000000
   4.77938623  2.76380597  5.16298467
   4.76417662  2.75134678 10.79721386
   3.18525100  5.51701689  0.00000000
   3.19088633  5.52332078  5.13830364
   3.17716219  5.52838582 10.14973948
   0.00000017  1.83900547  2.60418248
   0.01809586  1.81964103  7.70380172
  -1.59262550  4.59751415  2.60418248
  -1.57451040  4.62993600  7.70389311
  -3.18525076  7.35602236  2.60418248
  -3.20194553  7.36032360  7.68131812
   3.18525147  1.83900547  2.60418248
   3.20418983  1.86943312  7.70401154
   1.59262574  4.59751415  2.60418248
   1.57610944  4.60181945  7.68161223
   0.00000039  7.35602236  2.60418248
   0.01767383  7.33604603  7.70658739
   6.37050200  1.83900547  2.60418248
   6.35234055  1.84095683  7.68010002
   4.77787638  4.59751415  2.60418248
   4.79441275  4.57725070  7.70831963
   3.18525124  7.35602236  2.60418248
   3.20423581  7.38826924  7.70709343
   4.73458857  8.24128260 12.96464361
  -1.99418745  7.58283513 13.52509670
   7.58718976  2.13692248 13.52242987
   4.73697084  2.70007778 12.96246283
   2.76339305  4.81606393 13.52195457
  -0.07475772  5.41365264 12.96763004
   9.00252925  0.68508504 13.40957690
  -3.94974651  8.13689345 13.41671589
   3.28653129  0.14994549 13.50159834
  -2.12939510  7.37431925 12.55487977
  -1.47953850  2.98765029 13.49104266
   7.45267180  1.91827573 12.55506767
   4.20373407  3.40232295 13.40780819
   5.61277122  2.62744847 13.41260301
   3.24605504  5.67044308 13.50265886
   2.63407125  4.60846894 12.55048338
  -0.59050115  6.12965532 13.41228291
   0.80001152  5.32268549 13.41716051
 


--------------------------------------------------------------------------------------------------------


 k-point  1 :   0.0000 0.0000 0.0000  plane waves:   69403
 k-point  2 :   0.3333-0.0000 0.0000  plane waves:   69509
 k-point  3 :   0.0000 0.3333 0.0000  plane waves:   69509
 k-point  4 :   0.3333 0.3333 0.0000  plane waves:   69474
 k-point  5 :  -0.3333 0.3333 0.0000  plane waves:   69509

 maximum and minimum number of plane-waves per node :      2924     2870

 maximum number of plane-waves:     69509
 maximum index in each direction: 
   IXMAX=   18   IYMAX=   17   IZMAX=   60
   IXMIN=  -18   IYMIN=  -18   IZMIN=  -60


 real space projection operators:
  total allocation   :      22570.98 KBytes
  max/ min on nodes  :       1304.72        511.27


 parallel 3D FFT for wavefunctions:
    minimum data exchange during FFTs selected (reduces bandwidth)
 parallel 3D FFT for charge:
    minimum data exchange during FFTs selected (reduces bandwidth)


 total amount of memory used by VASP MPI-rank0    62217. kBytes
=======================================================================

   base      :      30000. kBytes
   nonlr-proj:       6314. kBytes
   fftplans  :       6459. kBytes
   grid      :      11407. kBytes
   one-center:         24. kBytes
   wavefun   :       8013. kBytes
 
     INWAV:  cpu time    0.0001: real time    0.0007
 Broyden mixing: mesh for mixing (old mesh)
   NGX = 35   NGY = 35   NGZ =121
  (NGX  =144   NGY  =144   NGZ  =500)
  gives a total of 148225 points

 initial charge density was supplied:
 charge density of overlapping atoms calculated
 number of electron     138.0000000 magnetization 
 keeping initial charge density in first step


--------------------------------------------------------------------------------------------------------


 Maximum index for non-local projection operator          297
 Maximum index for augmentation-charges          837 (set IRDMAX)


--------------------------------------------------------------------------------------------------------


 First call to EWALD:  gamma=   0.129
 Maximum number of real-space cells 4x 4x 1
 Maximum number of reciprocal cells 2x 2x 6

    FEWALD:  cpu time    0.0062: real time    0.0062


--------------------------------------- Iteration      1(   1)  ---------------------------------------


vdW kernel read from vdw_kernel.bindat
  0.0000  0.2424  0.5071  0.7962  1.1119  1.4567  1.8333  2.2446  2.6937  3.1842
  3.7199  4.3049  4.9438  5.6415  6.4036  7.2358  8.1446  9.1372 10.2212 11.4050
 12.6979 14.1099 15.6519 17.3360 19.1751 21.1837 23.3773 25.7729 28.3892 31.2465
 34.3669 37.7748 41.4965 45.5611 50.0000
 
    POTLOK:  cpu time    9.8034: real time   10.1402
    SETDIJ:  cpu time    0.1355: real time    0.1363
    EDDIAG:  cpu time    2.5170: real time    2.5178
  RMM-DIIS:  cpu time    2.0815: real time    2.0818
    ORTHCH:  cpu time    0.8614: real time    0.8615
 BZINTS: Fermi energy:  9.567156;138.000000 electrons
         Band energy: 212.729459;  BLOECHL correction: -0.121020
       DOS:  cpu time    0.0055: real time    0.0055
    --------------------------------------------
      LOOP:  cpu time   15.4044: real time   15.7431

 eigenvalue-minimisations  :   510
 total energy-change (2. order) : 0.1242421E+04  (-0.2790376E+04)
 number of electron     138.0000000 magnetization 
 augmentation part      138.0000000 magnetization 

 DIPCOR: dipole corrections for dipol
 direction  3 min pos   364,
 dipolmoment           0.000000      0.000000     -0.000336 electrons x Angstroem
 Tr[quadrupol]     -1916.579371

 energy correction for charged system         0.000000 eV
 dipol+quadrupol energy correction           -0.000000 eV
 added-field ion interaction          0.001958 eV  (added to PSCEN)


 Free energy of the ion-electron system (eV)
  ---------------------------------------------------
  alpha Z        PSCENC =        63.16302143
  Ewald energy   TEWEN  =     12429.19950358
  -Hartree energ DENC   =    -15655.58518671
  -exchange      EXHF   =         0.00000000
  -V(xc)+E(xc)   XCENC  =     -2051.21945199
  PAW double counting   =      5135.15659847    -2719.01140655
  entropy T*S    EENTRO =         0.00000000
  eigenvalues    EBANDS =       212.72945917
  atomic energy  EATOM  =      3827.98814510
  Solvation  Ediel_sol  =         0.00000000
  ---------------------------------------------------
  free energy    TOTEN  =      1242.42068251 eV

  energy without entropy =     1242.42068251  energy(sigma->0) =     1242.42068251


--------------------------------------------------------------------------------------------------------




--------------------------------------- Iteration      1(   2)  ---------------------------------------


    EDDIAG:  cpu time    2.4463: real time    2.4675
  RMM-DIIS:  cpu time    2.1127: real time    2.1130
    ORTHCH:  cpu time    0.9772: real time    0.9773
 BZINTS: Fermi energy:  2.142055;138.000000 electrons
         Band energy:-484.535311;  BLOECHL correction: -0.277461
       DOS:  cpu time    0.0066: real time    0.0066
    --------------------------------------------
      LOOP:  cpu time    5.5428: real time    5.5643

 eigenvalue-minimisations  :   510
 total energy-change (2. order) :-0.6972648E+03  (-0.7536904E+03)
 number of electron     138.0000000 magnetization 
 augmentation part      138.0000000 magnetization 

 DIPCOR: dipole corrections for dipol
 direction  3 min pos   364,
 dipolmoment           0.000000      0.000000     -0.000336 electrons x Angstroem
 Tr[quadrupol]     -1916.579371

 energy correction for charged system         0.000000 eV
 dipol+quadrupol energy correction           -0.000000 eV
 added-field ion interaction          0.001958 eV  (added to PSCEN)


 Free energy of the ion-electron system (eV)
  ---------------------------------------------------
  alpha Z        PSCENC =        63.16302143
  Ewald energy   TEWEN  =     12429.19950358
  -Hartree energ DENC   =    -15655.58518671
  -exchange      EXHF   =         0.00000000
  -V(xc)+E(xc)   XCENC  =     -2051.21945199
  PAW double counting   =      5135.15659847    -2719.01140655
  entropy T*S    EENTRO =         0.00000000
  eigenvalues    EBANDS =      -484.53531055
  atomic energy  EATOM  =      3827.98814510
  Solvation  Ediel_sol  =         0.00000000
  ---------------------------------------------------
  free energy    TOTEN  =       545.15591279 eV

  energy without entropy =      545.15591279  energy(sigma->0) =      545.15591279


--------------------------------------------------------------------------------------------------------




--------------------------------------- Iteration      1(   3)  ---------------------------------------


    EDDIAG:  cpu time    2.4395: real time    2.4610
  RMM-DIIS:  cpu time    2.1551: real time    2.1554
    ORTHCH:  cpu time    0.9510: real time    0.9510
 BZINTS: Fermi energy:  0.352722;138.000000 electrons
         Band energy:-718.516220;  BLOECHL correction: -0.485944
       DOS:  cpu time    0.0053: real time    0.0053
    --------------------------------------------
      LOOP:  cpu time    5.5509: real time    5.5727

 eigenvalue-minimisations  :   510
 total energy-change (2. order) :-0.2339809E+03  (-0.2980543E+03)
 number of electron     138.0000000 magnetization 
 augmentation part      138.0000000 magnetization 

 DIPCOR: dipole corrections for dipol
 direction  3 min pos   364,
 dipolmoment           0.000000      0.000000     -0.000336 electrons x Angstroem
 Tr[quadrupol]     -1916.579371

 energy correction for charged system         0.000000 eV
 dipol+quadrupol energy correction           -0.000000 eV
 added-field ion interaction          0.001958 eV  (added to PSCEN)


 Free energy of the ion-electron system (eV)
  ---------------------------------------------------
  alpha Z        PSCENC =        63.16302143
  Ewald energy   TEWEN  =     12429.19950358
  -Hartree energ DENC   =    -15655.58518671
  -exchange      EXHF   =         0.00000000
  -V(xc)+E(xc)   XCENC  =     -2051.21945199
  PAW double counting   =      5135.15659847    -2719.01140655
  entropy T*S    EENTRO =         0.00000000
  eigenvalues    EBANDS =      -718.51621958
  atomic energy  EATOM  =      3827.98814510
  Solvation  Ediel_sol  =         0.00000000
  ---------------------------------------------------
  free energy    TOTEN  =       311.17500376 eV

  energy without entropy =      311.17500376  energy(sigma->0) =      311.17500376


--------------------------------------------------------------------------------------------------------




--------------------------------------- Iteration      1(   4)  ---------------------------------------


    EDDIAG:  cpu time    2.4908: real time    2.5074
  RMM-DIIS:  cpu time    2.0944: real time    2.0947
    ORTHCH:  cpu time    0.9149: real time    0.9150
 BZINTS: Fermi energy: -0.725099;138.000000 electrons
         Band energy:-894.531110;  BLOECHL correction: -0.102374
       DOS:  cpu time    0.0051: real time    0.0051
    --------------------------------------------
      LOOP:  cpu time    5.5053: real time    5.5222

 eigenvalue-minimisations  :   510
 total energy-change (2. order) :-0.1760149E+03  (-0.1513363E+03)
 number of electron     138.0000000 magnetization 
 augmentation part      138.0000000 magnetization 

 DIPCOR: dipole corrections for dipol
 direction  3 min pos   364,
 dipolmoment           0.000000      0.000000     -0.000336 electrons x Angstroem
 Tr[quadrupol]     -1916.579371

 energy correction for charged system         0.000000 eV
 dipol+quadrupol energy correction           -0.000000 eV
 added-field ion interaction          0.001958 eV  (added to PSCEN)


 Free energy of the ion-electron system (eV)
  ---------------------------------------------------
  alpha Z        PSCENC =        63.16302143
  Ewald energy   TEWEN  =     12429.19950358
  -Hartree energ DENC   =    -15655.58518671
  -exchange      EXHF   =         0.00000000
  -V(xc)+E(xc)   XCENC  =     -2051.21945199
  PAW double counting   =      5135.15659847    -2719.01140655
  entropy T*S    EENTRO =         0.00000000
  eigenvalues    EBANDS =      -894.53111029
  atomic energy  EATOM  =      3827.98814510
  Solvation  Ediel_sol  =         0.00000000
  ---------------------------------------------------
  free energy    TOTEN  =       135.16011305 eV

  energy without entropy =      135.16011305  energy(sigma->0) =      135.16011305


--------------------------------------------------------------------------------------------------------




--------------------------------------- Iteration      1(   5)  ---------------------------------------


    EDDIAG:  cpu time    2.5084: real time    2.5242
  RMM-DIIS:  cpu time    2.1158: real time    2.1160
    ORTHCH:  cpu time    0.9807: real time    0.9808
 BZINTS: Fermi energy: -1.233167;138.000000 electrons
         Band energy:***********;  BLOECHL correction: -0.128944
       DOS:  cpu time    0.0053: real time    0.0053
    --------------------------------------------
      LOOP:  cpu time    5.6102: real time    5.6263

 eigenvalue-minimisations  :   510
 total energy-change (2. order) :-0.1173120E+03  (-0.9379212E+02)
 number of electron     138.0000000 magnetization 
 augmentation part      138.0000000 magnetization 

 DIPCOR: dipole corrections for dipol
 direction  3 min pos   364,
 dipolmoment           0.000000      0.000000     -0.000336 electrons x Angstroem
 Tr[quadrupol]     -1916.579371

 energy correction for charged system         0.000000 eV
 dipol+quadrupol energy correction           -0.000000 eV
 added-field ion interaction          0.001958 eV  (added to PSCEN)


 Free energy of the ion-electron system (eV)
  ---------------------------------------------------
  alpha Z        PSCENC =        63.16302143
  Ewald energy   TEWEN  =     12429.19950358
  -Hartree energ DENC   =    -15655.58518671
  -exchange      EXHF   =         0.00000000
  -V(xc)+E(xc)   XCENC  =     -2051.21945199
  PAW double counting   =      5135.15659847    -2719.01140655
  entropy T*S    EENTRO =         0.00000000
  eigenvalues    EBANDS =     -1011.84312848
  atomic energy  EATOM  =      3827.98814510
  Solvation  Ediel_sol  =         0.00000000
  ---------------------------------------------------
  free energy    TOTEN  =        17.84809486 eV

  energy without entropy =       17.84809486  energy(sigma->0) =       17.84809486


--------------------------------------------------------------------------------------------------------




--------------------------------------- Iteration      1(   6)  ---------------------------------------


    EDDIAG:  cpu time    2.5039: real time    2.5233
  RMM-DIIS:  cpu time    2.1123: real time    2.1125
    ORTHCH:  cpu time    0.8977: real time    0.8978
 BZINTS: Fermi energy: -1.355341;138.000000 electrons
         Band energy:***********;  BLOECHL correction: -0.019406
       DOS:  cpu time    0.0051: real time    0.0051
    --------------------------------------------
      LOOP:  cpu time    5.5190: real time    5.5387

 eigenvalue-minimisations  :   510
 total energy-change (2. order) :-0.6227369E+02  (-0.4790770E+02)
 number of electron     138.0000000 magnetization 
 augmentation part      138.0000000 magnetization 

 DIPCOR: dipole corrections for dipol
 direction  3 min pos   364,
 dipolmoment           0.000000      0.000000     -0.000336 electrons x Angstroem
 Tr[quadrupol]     -1916.579371

 energy correction for charged system         0.000000 eV
 dipol+quadrupol energy correction           -0.000000 eV
 added-field ion interaction          0.001958 eV  (added to PSCEN)


 Free energy of the ion-electron system (eV)
  ---------------------------------------------------
  alpha Z        PSCENC =        63.16302143
  Ewald energy   TEWEN  =     12429.19950358
  -Hartree energ DENC   =    -15655.58518671
  -exchange      EXHF   =         0.00000000
  -V(xc)+E(xc)   XCENC  =     -2051.21945199
  PAW double counting   =      5135.15659847    -2719.01140655
  entropy T*S    EENTRO =         0.00000000
  eigenvalues    EBANDS =     -1074.11681390
  atomic energy  EATOM  =      3827.98814510
  Solvation  Ediel_sol  =         0.00000000
  ---------------------------------------------------
  free energy    TOTEN  =       -44.42559056 eV

  energy without entropy =      -44.42559056  energy(sigma->0) =      -44.42559056


--------------------------------------------------------------------------------------------------------




--------------------------------------- Iteration      1(   7)  ---------------------------------------


    EDDIAG:  cpu time    2.4806: real time    2.5014
  RMM-DIIS:  cpu time    2.1032: real time    2.1034
    ORTHCH:  cpu time    0.9906: real time    0.9907
 BZINTS: Fermi energy: -1.405490;138.000000 electrons
         Band energy:***********;  BLOECHL correction: -0.058071
       DOS:  cpu time    0.0073: real time    0.0073
    --------------------------------------------
      LOOP:  cpu time    5.5817: real time    5.6028

 eigenvalue-minimisations  :   510
 total energy-change (2. order) :-0.2509344E+02  (-0.1931831E+02)
 number of electron     138.0000000 magnetization 
 augmentation part      138.0000000 magnetization 

 DIPCOR: dipole corrections for dipol
 direction  3 min pos   364,
 dipolmoment           0.000000      0.000000     -0.000336 electrons x Angstroem
 Tr[quadrupol]     -1916.579371

 energy correction for charged system         0.000000 eV
 dipol+quadrupol energy correction           -0.000000 eV
 added-field ion interaction          0.001958 eV  (added to PSCEN)


 Free energy of the ion-electron system (eV)
  ---------------------------------------------------
  alpha Z        PSCENC =        63.16302143
  Ewald energy   TEWEN  =     12429.19950358
  -Hartree energ DENC   =    -15655.58518671
  -exchange      EXHF   =         0.00000000
  -V(xc)+E(xc)   XCENC  =     -2051.21945199
  PAW double counting   =      5135.15659847    -2719.01140655
  entropy T*S    EENTRO =         0.00000000
  eigenvalues    EBANDS =     -1099.21025678
  atomic energy  EATOM  =      3827.98814510
  Solvation  Ediel_sol  =         0.00000000
  ---------------------------------------------------
  free energy    TOTEN  =       -69.51903344 eV

  energy without entropy =      -69.51903344  energy(sigma->0) =      -69.51903344


--------------------------------------------------------------------------------------------------------




--------------------------------------- Iteration      1(   8)  ---------------------------------------


    EDDIAG:  cpu time    2.4809: real time    2.5051
  RMM-DIIS:  cpu time    2.1202: real time    2.1204
    ORTHCH:  cpu time    0.8971: real time    0.8972
 BZINTS: Fermi energy: -1.435066;138.000000 electrons
         Band energy:***********;  BLOECHL correction: -0.084691
       DOS:  cpu time    0.0086: real time    0.0086
    --------------------------------------------
      LOOP:  cpu time    5.5068: real time    5.5313

 eigenvalue-minimisations  :   510
 total energy-change (2. order) :-0.6346742E+01  (-0.5522411E+01)
 number of electron     138.0000000 magnetization 
 augmentation part      138.0000000 magnetization 

 DIPCOR: dipole corrections for dipol
 direction  3 min pos   364,
 dipolmoment           0.000000      0.000000     -0.000336 electrons x Angstroem
 Tr[quadrupol]     -1916.579371

 energy correction for charged system         0.000000 eV
 dipol+quadrupol energy correction           -0.000000 eV
 added-field ion interaction          0.001958 eV  (added to PSCEN)


 Free energy of the ion-electron system (eV)
  ---------------------------------------------------
  alpha Z        PSCENC =        63.16302143
  Ewald energy   TEWEN  =     12429.19950358
  -Hartree energ DENC   =    -15655.58518671
  -exchange      EXHF   =         0.00000000
  -V(xc)+E(xc)   XCENC  =     -2051.21945199
  PAW double counting   =      5135.15659847    -2719.01140655
  entropy T*S    EENTRO =         0.00000000
  eigenvalues    EBANDS =     -1105.55699896
  atomic energy  EATOM  =      3827.98814510
  Solvation  Ediel_sol  =         0.00000000
  ---------------------------------------------------
  free energy    TOTEN  =       -75.86577562 eV

  energy without entropy =      -75.86577562  energy(sigma->0) =      -75.86577562


--------------------------------------------------------------------------------------------------------




--------------------------------------- Iteration      1(   9)  ---------------------------------------


    EDDIAG:  cpu time    2.4598: real time    2.4807
  RMM-DIIS:  cpu time    4.8863: real time    4.8869
    ORTHCH:  cpu time    0.9202: real time    0.9202
 BZINTS: Fermi energy: -1.466661;138.000000 electrons
         Band energy:***********;  BLOECHL correction: -0.106892
       DOS:  cpu time    0.0029: real time    0.0029
    --------------------------------------------
      LOOP:  cpu time    8.2692: real time    8.2907

 eigenvalue-minimisations  :  1468
 total energy-change (2. order) :-0.2191055E+01  (-0.2101523E+01)
 number of electron     138.0000000 magnetization 
 augmentation part      138.0000000 magnetization 

 DIPCOR: dipole corrections for dipol
 direction  3 min pos   364,
 dipolmoment           0.000000      0.000000     -0.000336 electrons x Angstroem
 Tr[quadrupol]     -1916.579371

 energy correction for charged system         0.000000 eV
 dipol+quadrupol energy correction           -0.000000 eV
 added-field ion interaction          0.001958 eV  (added to PSCEN)


 Free energy of the ion-electron system (eV)
  ---------------------------------------------------
  alpha Z        PSCENC =        63.16302143
  Ewald energy   TEWEN  =     12429.19950358
  -Hartree energ DENC   =    -15655.58518671
  -exchange      EXHF   =         0.00000000
  -V(xc)+E(xc)   XCENC  =     -2051.21945199
  PAW double counting   =      5135.15659847    -2719.01140655
  entropy T*S    EENTRO =         0.00000000
  eigenvalues    EBANDS =     -1107.74805378
  atomic energy  EATOM  =      3827.98814510
  Solvation  Ediel_sol  =         0.00000000
  ---------------------------------------------------
  free energy    TOTEN  =       -78.05683044 eV

  energy without entropy =      -78.05683044  energy(sigma->0) =      -78.05683044


--------------------------------------------------------------------------------------------------------




--------------------------------------- Iteration      1(  10)  ---------------------------------------


    EDDIAG:  cpu time    2.4771: real time    2.4981
  RMM-DIIS:  cpu time    5.7773: real time    5.7779
    ORTHCH:  cpu time    0.9301: real time    0.9302
 BZINTS: Fermi energy: -1.468147;138.000000 electrons
         Band energy:***********;  BLOECHL correction: -0.107780
       DOS:  cpu time    0.0079: real time    0.0079
    --------------------------------------------
      LOOP:  cpu time    9.1923: real time    9.2140

 eigenvalue-minimisations  :  1757
 total energy-change (2. order) :-0.3222053E+00  (-0.3297336E+00)
 number of electron     138.0000000 magnetization 
 augmentation part      138.0000000 magnetization 

 DIPCOR: dipole corrections for dipol
 direction  3 min pos   364,
 dipolmoment           0.000000      0.000000     -0.000336 electrons x Angstroem
 Tr[quadrupol]     -1916.579371

 energy correction for charged system         0.000000 eV
 dipol+quadrupol energy correction           -0.000000 eV
 added-field ion interaction          0.001958 eV  (added to PSCEN)


 Free energy of the ion-electron system (eV)
  ---------------------------------------------------
  alpha Z        PSCENC =        63.16302143
  Ewald energy   TEWEN  =     12429.19950358
  -Hartree energ DENC   =    -15655.58518671
  -exchange      EXHF   =         0.00000000
  -V(xc)+E(xc)   XCENC  =     -2051.21945199
  PAW double counting   =      5135.15659847    -2719.01140655
  entropy T*S    EENTRO =         0.00000000
  eigenvalues    EBANDS =     -1108.07025905
  atomic energy  EATOM  =      3827.98814510
  Solvation  Ediel_sol  =         0.00000000
  ---------------------------------------------------
  free energy    TOTEN  =       -78.37903571 eV

  energy without entropy =      -78.37903571  energy(sigma->0) =      -78.37903571


--------------------------------------------------------------------------------------------------------




--------------------------------------- Iteration      1(  11)  ---------------------------------------


    EDDIAG:  cpu time    2.5034: real time    2.5232
  RMM-DIIS:  cpu time    5.6722: real time    5.6728
    ORTHCH:  cpu time    0.9812: real time    0.9813
 BZINTS: Fermi energy: -1.468526;138.000000 electrons
         Band energy:***********;  BLOECHL correction: -0.107712
       DOS:  cpu time    0.0043: real time    0.0043
    --------------------------------------------
      LOOP:  cpu time    9.1611: real time    9.1817

 eigenvalue-minimisations  :  1715
 total energy-change (2. order) :-0.3004996E-02  (-0.1777408E-01)
 number of electron     138.0000000 magnetization 
 augmentation part      138.0000000 magnetization 

 DIPCOR: dipole corrections for dipol
 direction  3 min pos   364,
 dipolmoment           0.000000      0.000000     -0.000336 electrons x Angstroem
 Tr[quadrupol]     -1916.579371

 energy correction for charged system         0.000000 eV
 dipol+quadrupol energy correction           -0.000000 eV
 added-field ion interaction          0.001958 eV  (added to PSCEN)


 Free energy of the ion-electron system (eV)
  ---------------------------------------------------
  alpha Z        PSCENC =        63.16302143
  Ewald energy   TEWEN  =     12429.19950358
  -Hartree energ DENC   =    -15655.58518671
  -exchange      EXHF   =         0.00000000
  -V(xc)+E(xc)   XCENC  =     -2051.21945199
  PAW double counting   =      5135.15659847    -2719.01140655
  entropy T*S    EENTRO =         0.00000000
  eigenvalues    EBANDS =     -1108.07326405
  atomic energy  EATOM  =      3827.98814510
  Solvation  Ediel_sol  =         0.00000000
  ---------------------------------------------------
  free energy    TOTEN  =       -78.38204070 eV

  energy without entropy =      -78.38204070  energy(sigma->0) =      -78.38204070


--------------------------------------------------------------------------------------------------------




--------------------------------------- Iteration      1(  12)  ---------------------------------------


    EDDIAG:  cpu time    2.4715: real time    2.4948
  RMM-DIIS:  cpu time    6.0193: real time    6.0198
    ORTHCH:  cpu time    0.9852: real time    0.9852
 BZINTS: Fermi energy: -1.468564;138.000000 electrons
         Band energy:***********;  BLOECHL correction: -0.107733
       DOS:  cpu time    0.0057: real time    0.0057
    CHARGE:  cpu time    0.4602: real time    0.4603
    MIXING:  cpu time    0.0046: real time    0.0047
    --------------------------------------------
      LOOP:  cpu time    9.9465: real time    9.9706

 eigenvalue-minimisations  :  1819
 total energy-change (2. order) :-0.3217136E-02  (-0.3723571E-02)
 number of electron     137.9999996 magnetization 
 augmentation part        5.2109140 magnetization 

 DIPCOR: dipole corrections for dipol
 direction  3 min pos   364,
 dipolmoment           0.000000      0.000000     -0.000336 electrons x Angstroem
 Tr[quadrupol]     -1916.579371

 energy correction for charged system         0.000000 eV
 dipol+quadrupol energy correction           -0.000000 eV
 added-field ion interaction          0.001958 eV  (added to PSCEN)


 Broyden mixing:
  rms(total) = 0.19503E+01    rms(broyden)= 0.19491E+01
  rms(prec ) = 0.20438E+01
  weight for this iteration     100.00

 Free energy of the ion-electron system (eV)
  ---------------------------------------------------
  alpha Z        PSCENC =        63.16302143
  Ewald energy   TEWEN  =     12429.19950358
  -Hartree energ DENC   =    -15655.58518671
  -exchange      EXHF   =         0.00000000
  -V(xc)+E(xc)   XCENC  =     -2051.21945199
  PAW double counting   =      5135.15659847    -2719.01140655
  entropy T*S    EENTRO =         0.00000000
  eigenvalues    EBANDS =     -1108.07648118
  atomic energy  EATOM  =      3827.98814510
  Solvation  Ediel_sol  =         0.00000000
  ---------------------------------------------------
  free energy    TOTEN  =       -78.38525784 eV

  energy without entropy =      -78.38525784  energy(sigma->0) =      -78.38525784


--------------------------------------------------------------------------------------------------------




--------------------------------------- Iteration      1(  13)  ---------------------------------------


    POTLOK:  cpu time    8.8232: real time    8.8453
    SETDIJ:  cpu time    0.1354: real time    0.1357
    EDDIAG:  cpu time    2.4695: real time    2.4701
  RMM-DIIS:  cpu time    4.7792: real time    4.7797
    ORTHCH:  cpu time    0.9063: real time    0.9064
 BZINTS: Fermi energy: -1.024886;138.000000 electrons
         Band energy:-937.397310;  BLOECHL correction: -0.101699
       DOS:  cpu time    0.0039: real time    0.0039
    CHARGE:  cpu time    0.4758: real time    0.4759
    MIXING:  cpu time    0.0039: real time    0.0039
    --------------------------------------------
      LOOP:  cpu time   17.5973: real time   17.6210

 eigenvalue-minimisations  :  1436
 total energy-change (2. order) : 0.9989673E+01  (-0.5651031E+01)
 number of electron     137.9999997 magnetization 
 augmentation part        4.4821387 magnetization 

 DIPCOR: dipole corrections for dipol
 direction  3 min pos   365,
 dipolmoment           0.000000      0.000000      0.212257 electrons x Angstroem
 Tr[quadrupol]     -1927.896463

 energy correction for charged system         0.000000 eV
 dipol+quadrupol energy correction           -0.001580 eV
 added-field ion interaction         -1.103623 eV  (added to PSCEN)


 Broyden mixing:
  rms(total) = 0.75157E+00    rms(broyden)= 0.75108E+00
  rms(prec ) = 0.81691E+00
  weight for this iteration     100.00

 eigenvalues of (default mixing * dielectric matrix)
  average eigenvalue GAMMA=   0.9718
  0.9718

 Free energy of the ion-electron system (eV)
  ---------------------------------------------------
  alpha Z        PSCENC =        62.05586056
  Ewald energy   TEWEN  =     12429.19950358
  -Hartree energ DENC   =    -15822.14574620
  -exchange      EXHF   =         0.00000000
  -V(xc)+E(xc)   XCENC  =     -2041.72676207
  PAW double counting   =      5560.52724297    -3146.89651866
  entropy T*S    EENTRO =         0.00000000
  eigenvalues    EBANDS =      -937.39731033
  atomic energy  EATOM  =      3827.98814510
  Solvation  Ediel_sol  =         0.00000000
  ---------------------------------------------------
  free energy    TOTEN  =       -68.39558504 eV

  energy without entropy =      -68.39558504  energy(sigma->0) =      -68.39558504


--------------------------------------------------------------------------------------------------------




--------------------------------------- Iteration      1(  14)  ---------------------------------------


    POTLOK:  cpu time    8.8791: real time    8.9011
    SETDIJ:  cpu time    0.1356: real time    0.1356
    EDDIAG:  cpu time    2.4400: real time    2.4406
  RMM-DIIS:  cpu time    5.2236: real time    5.2242
    ORTHCH:  cpu time    0.9852: real time    0.9852
 BZINTS: Fermi energy: -0.861953;138.000000 electrons
         Band energy:-956.839843;  BLOECHL correction: -0.206013
       DOS:  cpu time    0.0044: real time    0.0044
    CHARGE:  cpu time    0.4872: real time    0.4872
    MIXING:  cpu time    0.0035: real time    0.0035
    --------------------------------------------
      LOOP:  cpu time   18.1584: real time   18.1818

 eigenvalue-minimisations  :  1537
 total energy-change (2. order) :-0.5478865E+01  (-0.3253374E+00)
 number of electron     137.9999997 magnetization 
 augmentation part        4.4099629 magnetization 

 DIPCOR: dipole corrections for dipol
 direction  3 min pos   379,
 dipolmoment           0.000000      0.000000     -1.027153 electrons x Angstroem
 Tr[quadrupol]     -1919.959192

 energy correction for charged system         0.000000 eV
 dipol+quadrupol energy correction           -0.036999 eV
 added-field ion interaction         -3.741249 eV  (added to PSCEN)


 Broyden mixing:
  rms(total) = 0.65184E+00    rms(broyden)= 0.65180E+00
  rms(prec ) = 0.15212E+01
  weight for this iteration     100.00

 eigenvalues of (default mixing * dielectric matrix)
  average eigenvalue GAMMA=   1.1063
  1.1063  1.1063

 Free energy of the ion-electron system (eV)
  ---------------------------------------------------
  alpha Z        PSCENC =        59.38281560
  Ewald energy   TEWEN  =     12429.19950358
  -Hartree energ DENC   =    -15807.62811790
  -exchange      EXHF   =         0.00000000
  -V(xc)+E(xc)   XCENC  =     -2039.54056484
  PAW double counting   =      5743.32927693    -3329.76566629
  entropy T*S    EENTRO =         0.00000000
  eigenvalues    EBANDS =      -956.83984261
  atomic energy  EATOM  =      3827.98814510
  Solvation  Ediel_sol  =         0.00000000
  ---------------------------------------------------
  free energy    TOTEN  =       -73.87445041 eV

  energy without entropy =      -73.87445041  energy(sigma->0) =      -73.87445041


--------------------------------------------------------------------------------------------------------




--------------------------------------- Iteration      1(  15)  ---------------------------------------


    POTLOK:  cpu time    8.8916: real time    8.9147
    SETDIJ:  cpu time    0.1360: real time    0.1360
    EDDIAG:  cpu time    2.3904: real time    2.3910
  RMM-DIIS:  cpu time    4.8497: real time    4.8502
    ORTHCH:  cpu time    0.9905: real time    0.9905
 BZINTS: Fermi energy: -1.121973;138.000000 electrons
         Band energy:-920.750905;  BLOECHL correction: -0.155698
       DOS:  cpu time    0.0054: real time    0.0054
    CHARGE:  cpu time    0.5022: real time    0.5023
    MIXING:  cpu time    0.0041: real time    0.0041
    --------------------------------------------
      LOOP:  cpu time   17.7698: real time   17.7941

 eigenvalue-minimisations  :  1507
 total energy-change (2. order) : 0.4819486E+01  (-0.1457693E+00)
 number of electron     137.9999997 magnetization 
 augmentation part        4.3521107 magnetization 

 DIPCOR: dipole corrections for dipol
 direction  3 min pos   387,
 dipolmoment           0.000000      0.000000      0.249843 electrons x Angstroem
 Tr[quadrupol]     -1928.722547

 energy correction for charged system         0.000000 eV
 dipol+quadrupol energy correction           -0.002189 eV
 added-field ion interaction          2.172337 eV  (added to PSCEN)


 Broyden mixing:
  rms(total) = 0.52514E+00    rms(broyden)= 0.52512E+00
  rms(prec ) = 0.80921E+00
  weight for this iteration     100.00

 eigenvalues of (default mixing * dielectric matrix)
  average eigenvalue GAMMA=   1.1373
  2.0698  1.1988  0.1432

 Free energy of the ion-electron system (eV)
  ---------------------------------------------------
  alpha Z        PSCENC =        65.33121085
  Ewald energy   TEWEN  =     12429.19950358
  -Hartree energ DENC   =    -15845.16062109
  -exchange      EXHF   =         0.00000000
  -V(xc)+E(xc)   XCENC  =     -2039.24379967
  PAW double counting   =      5769.71384960    -3356.13234758
  entropy T*S    EENTRO =         0.00000000
  eigenvalues    EBANDS =      -920.75090490
  atomic energy  EATOM  =      3827.98814510
  Solvation  Ediel_sol  =         0.00000000
  ---------------------------------------------------
  free energy    TOTEN  =       -69.05496410 eV

  energy without entropy =      -69.05496410  energy(sigma->0) =      -69.05496410


--------------------------------------------------------------------------------------------------------




--------------------------------------- Iteration      1(  16)  ---------------------------------------


    POTLOK:  cpu time    8.8035: real time    8.8216
    SETDIJ:  cpu time    0.1349: real time    0.1354
    EDDIAG:  cpu time    2.4756: real time    2.4766
  RMM-DIIS:  cpu time    4.9107: real time    4.9112
    ORTHCH:  cpu time    0.9283: real time    0.9284
 BZINTS: Fermi energy: -0.807566;138.000000 electrons
         Band energy:-909.289085;  BLOECHL correction: -0.077281
       DOS:  cpu time    0.0090: real time    0.0090
    CHARGE:  cpu time    0.4685: real time    0.4685
    MIXING:  cpu time    0.0037: real time    0.0037
    --------------------------------------------
      LOOP:  cpu time   17.7344: real time   17.7545

 eigenvalue-minimisations  :  1461
 total energy-change (2. order) : 0.1116818E+01  (-0.1109868E+00)
 number of electron     137.9999997 magnetization 
 augmentation part        4.4374596 magnetization 

 DIPCOR: dipole corrections for dipol
 direction  3 min pos   391,
 dipolmoment           0.000000      0.000000     -0.176437 electrons x Angstroem
 Tr[quadrupol]     -1930.933999

 energy correction for charged system         0.000000 eV
 dipol+quadrupol energy correction           -0.001092 eV
 added-field ion interaction         -1.979805 eV  (added to PSCEN)


 Broyden mixing:
  rms(total) = 0.20160E+00    rms(broyden)= 0.20157E+00
  rms(prec ) = 0.24570E+00
  weight for this iteration     100.00

 eigenvalues of (default mixing * dielectric matrix)
  average eigenvalue GAMMA=   1.0674
  2.4405  1.0281  0.6540  0.1472

 Free energy of the ion-electron system (eV)
  ---------------------------------------------------
  alpha Z        PSCENC =        61.18016656
  Ewald energy   TEWEN  =     12429.19950358
  -Hartree energ DENC   =    -15852.80756914
  -exchange      EXHF   =         0.00000000
  -V(xc)+E(xc)   XCENC  =     -2037.99802821
  PAW double counting   =      5897.70311090    -3483.91438986
  entropy T*S    EENTRO =         0.00000000
  eigenvalues    EBANDS =      -909.28908484
  atomic energy  EATOM  =      3827.98814510
  Solvation  Ediel_sol  =         0.00000000
  ---------------------------------------------------
  free energy    TOTEN  =       -67.93814591 eV

  energy without entropy =      -67.93814591  energy(sigma->0) =      -67.93814591


--------------------------------------------------------------------------------------------------------




--------------------------------------- Iteration      1(  17)  ---------------------------------------


    POTLOK:  cpu time    8.9358: real time    8.9583
    SETDIJ:  cpu time    0.1473: real time    0.1473
    EDDIAG:  cpu time    2.4755: real time    2.4761
  RMM-DIIS:  cpu time    4.4078: real time    4.4082
    ORTHCH:  cpu time    0.9294: real time    0.9295
 BZINTS: Fermi energy: -0.834460;138.000000 electrons
         Band energy:-905.071681;  BLOECHL correction: -0.110451
       DOS:  cpu time    0.0053: real time    0.0053
    CHARGE:  cpu time    0.4672: real time    0.4672
    MIXING:  cpu time    0.0039: real time    0.0039
    --------------------------------------------
      LOOP:  cpu time   17.3720: real time   17.3958

 eigenvalue-minimisations  :  1327
 total energy-change (2. order) : 0.1454299E-01  (-0.2426425E-01)
 number of electron     137.9999997 magnetization 
 augmentation part        4.4388891 magnetization 

 DIPCOR: dipole corrections for dipol
 direction  3 min pos   363,
 dipolmoment           0.000000      0.000000     -0.166518 electrons x Angstroem
 Tr[quadrupol]     -1931.299696

 energy correction for charged system         0.000000 eV
[...]
  0.014  -0.001   0.000   0.054   0.000  -0.000  -0.003  -0.000   0.000   0.000   0.011  -0.000  -0.000
  0.001   0.000  -0.001   0.000   0.076   0.000  -0.000  -0.004  -0.003  -0.000   0.000   0.005   0.000
  0.000   0.000  -0.004  -0.000   0.000   0.000  -0.000  -0.000   0.000  -0.000  -0.000   0.000   0.000
 -0.003   0.000   0.000  -0.003  -0.000  -0.000   0.000   0.000  -0.000  -0.000  -0.001   0.000   0.000
 -0.000  -0.000   0.000  -0.000  -0.004  -0.000   0.000   0.000   0.000   0.000  -0.000  -0.000  -0.000
  0.002   0.000  -0.000   0.000  -0.003   0.000  -0.000   0.000   0.004   0.000   0.000  -0.000  -0.000
 -0.000  -0.000   0.004   0.000  -0.000  -0.000  -0.000   0.000   0.000   0.002   0.000   0.000  -0.000
 -0.021   0.000  -0.000   0.011   0.000  -0.000  -0.001  -0.000   0.000   0.000   0.004  -0.000  -0.000
 -0.000   0.000  -0.000  -0.000   0.005   0.000   0.000  -0.000  -0.000   0.000  -0.000   0.002   0.000
 -0.002  -0.000  -0.003  -0.000   0.000   0.000   0.000  -0.000  -0.000  -0.000  -0.000   0.000   0.003


------------------------ aborting loop because EDIFF is reached ----------------------------------------


    CHARGE:  cpu time    0.6903: real time    0.6903
    FORLOC:  cpu time    0.0390: real time    0.0391
    FORNL :  cpu time    1.7285: real time    1.7287
    STRESS:  cpu time    5.2538: real time    5.2542
    FORCOR:  cpu time    8.7217: real time    8.7228
    FORHAR:  cpu time    0.2677: real time    0.2678
    MIXING:  cpu time    0.0085: real time    0.0085
    OFIELD:  cpu time    0.0001: real time    0.0001

  FORCE on cell =-STRESS in cart. coord.  units (eV):
  Direction    XX          YY          ZZ          XY          YZ          ZX
  --------------------------------------------------------------------------------------
  Alpha Z    63.16106    63.16106    63.16106
  Ewald   14074.70332 13724.11812-15369.63176  -303.53797   141.66533    84.30867
  Hartree 14962.69894 14698.02794-13778.80277  -230.15099    38.99734    22.67978
  E(xc)    -444.77738  -445.08791  -443.40674    -0.19181     0.59822     0.36791
  Local  -30002.37870-29391.17159 28196.44203   531.56117  -144.42788   -85.05213
  n-local   119.32001   120.13569   111.40387     0.28535     0.96866     0.55389
  augment    44.81469    44.82655    44.80106    -0.00997    -2.46304    -1.49234
  Kinetic  1174.99944  1175.19839  1175.22282     0.25832   -35.43874   -21.52654
  Fock        0.00000     0.00000     0.00000     0.00000     0.00000     0.00000
  -------------------------------------------------------------------------------------
  Total      -7.45861   -10.79173    -0.81043    -1.78591    -0.10012    -0.16076
  in kB      -4.63187    -6.70177    -0.50329    -1.10907    -0.06217    -0.09983
  external pressure =       -3.95 kB  Pullay stress =        0.00 kB


 VOLUME and BASIS-vectors are now :
 -----------------------------------------------------------------------------
  energy-cutoff  :      520.00
  volume of cell :     2579.96
      direct lattice vectors                 reciprocal lattice vectors
     9.555752754  0.000000000  0.000000000     0.104649003  0.060419130  0.000000000
    -4.777876377  8.275524637  0.000000000     0.000000000  0.120838260  0.000000000
     0.000000000  0.000000000 32.625095367     0.000000000  0.000000000  0.030651251

  length of vectors
     9.555752754  9.555752754 32.625095367     0.120838260  0.120838260  0.030651251


 FORCES acting on ions
    electron-ion (+dipol)            ewald-force                    non-local-force                 convergence-correction
 -----------------------------------------------------------------------------------------------
   0.355E-01 -.413E-01 0.121E+03   0.893E-06 -.500E-03 -.120E+03   -.273E-01 0.392E-01 -.813E+00   -.475E-05 0.125E-05 -.162E-04
   0.269E-01 -.103E-01 0.550E+02   -.178E-01 -.930E-02 -.550E+02   -.204E-01 0.314E-01 0.237E-01   -.182E-05 -.180E-05 -.776E-04
   0.430E+00 0.852E+00 0.443E+01   -.437E+00 -.903E+00 -.511E+01   0.115E-01 0.500E-01 0.656E+00   -.118E-08 -.137E-05 -.874E-04
   -.161E-01 -.604E-01 0.121E+03   -.330E-03 -.296E-03 -.120E+03   -.704E-02 0.504E-01 -.900E+00   -.220E-05 -.390E-05 -.163E-04
   0.996E-02 -.555E-02 0.550E+02   0.394E-02 -.288E-02 -.550E+02   -.146E-01 0.655E-02 0.615E-01   -.948E-07 0.391E-06 -.780E-04
   -.989E+00 -.181E+01 -.566E+01   0.953E+00 0.170E+01 0.525E+01   0.999E-02 0.860E-01 0.423E+00   -.171E-05 0.549E-06 -.792E-04
   0.338E-01 0.766E-02 0.121E+03   -.215E-03 0.464E-03 -.120E+03   -.295E-01 0.145E-01 -.891E+00   0.147E-05 -.461E-06 -.173E-04
   0.175E-01 -.252E-01 0.551E+02   -.132E-01 -.607E-02 -.551E+02   -.128E-02 0.302E-01 0.490E-01   -.364E-05 -.179E-05 -.766E-04
   0.149E+01 0.168E+01 -.128E+02   -.142E+01 -.161E+01 0.123E+02   -.649E-01 -.415E-01 0.461E+00   -.666E-06 -.983E-06 -.787E-04
   -.190E-01 -.553E-01 0.121E+03   -.933E-04 -.296E-03 -.120E+03   -.761E-02 0.497E-01 -.919E+00   0.257E-05 -.139E-05 -.178E-04
   0.293E-02 0.123E-02 0.550E+02   0.144E-01 0.639E-04 -.550E+02   -.200E-01 0.106E-02 0.627E-01   0.974E-06 0.192E-05 -.762E-04
   -.138E+01 -.218E+01 -.645E+01   0.136E+01 0.210E+01 0.601E+01   0.456E-02 0.750E-01 0.438E+00   0.469E-07 0.207E-05 -.786E-04
   0.329E-01 0.234E-01 0.121E+03   0.339E-03 0.267E-03 -.120E+03   -.358E-01 0.544E-02 -.886E+00   -.190E-05 0.143E-05 -.174E-04
   -.715E-02 -.623E-02 0.551E+02   0.897E-02 -.116E-01 -.551E+02   -.652E-02 0.239E-01 0.440E-01   0.180E-05 0.152E-05 -.754E-04
   0.907E+00 0.202E+01 -.125E+02   -.836E+00 -.194E+01 0.121E+02   -.732E-01 -.465E-01 0.466E+00   0.441E-05 0.181E-05 -.797E-04
   0.447E-01 -.523E-01 0.121E+03   0.331E-03 0.347E-03 -.120E+03   -.372E-01 0.341E-01 -.818E+00   0.846E-06 0.804E-06 -.184E-04
   0.197E-01 -.512E-01 0.550E+02   -.221E-02 0.200E-01 -.550E+02   -.273E-01 0.286E-01 0.224E-01   0.188E-05 -.805E-06 -.772E-04
   -.449E+00 -.798E+00 0.455E+01   0.450E+00 0.724E+00 -.528E+01   0.671E-02 0.571E-01 0.700E+00   -.178E-06 -.947E-06 -.820E-04
   0.469E-01 0.291E-01 0.121E+03   0.712E-04 -.131E-03 -.120E+03   -.384E-01 0.940E-02 -.893E+00   0.213E-05 0.262E-05 -.160E-04
   0.111E-01 0.924E-02 0.551E+02   0.254E-02 -.243E-01 -.551E+02   -.806E-02 0.278E-01 0.400E-01   0.831E-06 -.120E-05 -.798E-04
   0.117E+01 0.207E+01 -.135E+02   -.109E+01 -.200E+01 0.131E+02   -.646E-01 -.320E-01 0.471E+00   -.958E-06 0.235E-05 -.765E-04
   0.481E-01 -.416E-01 0.121E+03   -.283E-04 -.135E-04 -.120E+03   -.319E-01 0.343E-01 -.810E+00   0.410E-05 -.285E-05 -.151E-04
   0.349E-01 -.266E-01 0.550E+02   -.134E-01 0.874E-02 -.550E+02   -.245E-01 0.228E-01 0.201E-01   -.173E-05 0.238E-05 -.778E-04
   0.235E+00 0.477E+00 0.455E+01   -.220E+00 -.540E+00 -.524E+01   0.381E-02 0.540E-01 0.659E+00   -.231E-05 0.161E-06 -.797E-04
   -.882E-02 -.626E-01 0.121E+03   -.137E-03 0.747E-04 -.120E+03   -.121E-01 0.504E-01 -.913E+00   -.234E-05 0.252E-05 -.167E-04
   0.358E-02 -.227E-01 0.549E+02   0.135E-01 0.145E-01 -.550E+02   -.176E-01 0.548E-02 0.625E-01   0.171E-05 -.594E-06 -.765E-04
   -.126E+01 -.249E+01 -.660E+01   0.123E+01 0.240E+01 0.617E+01   0.394E-03 0.750E-01 0.432E+00   0.789E-06 -.448E-05 -.784E-04
   0.114E-01 0.241E-01 0.883E+02   -.364E-02 -.473E-01 -.882E+02   0.550E-02 -.146E-01 -.472E-01   -.390E-05 -.113E-05 -.556E-04
   -.148E+00 0.434E+00 0.219E+02   0.142E+00 -.393E+00 -.220E+02   0.661E-02 -.744E-01 0.168E+00   0.210E-05 0.127E-05 -.718E-04
   -.318E-01 -.684E-02 0.883E+02   0.405E-01 0.264E-01 -.882E+02   0.250E-01 -.266E-02 -.444E-01   -.554E-06 -.223E-05 -.549E-04
   -.328E+00 -.187E+00 0.219E+02   0.266E+00 0.194E+00 -.221E+02   0.877E-01 0.392E-02 0.173E+00   -.107E-05 -.752E-06 -.720E-04
   -.122E-01 -.176E-01 0.883E+02   -.341E-01 0.256E-01 -.882E+02   0.136E-01 -.118E-02 -.964E-01   -.216E-05 -.547E-06 -.545E-04
   0.501E+00 -.210E+00 0.222E+02   -.446E+00 0.166E+00 -.223E+02   -.752E-01 0.461E-01 0.138E+00   -.507E-06 -.280E-06 -.711E-04
   -.294E-01 0.928E-03 0.883E+02   0.426E-01 0.223E-01 -.882E+02   0.200E-01 0.118E-02 -.435E-01   0.301E-05 0.148E-05 -.532E-04
   -.385E+00 -.114E+00 0.218E+02   0.323E+00 0.128E+00 -.220E+02   0.878E-01 0.663E-02 0.173E+00   -.127E-05 0.170E-05 -.710E-04
   -.156E-01 -.313E-01 0.883E+02   -.306E-01 0.303E-01 -.882E+02   0.112E-01 -.242E-03 -.987E-01   0.124E-05 0.130E-05 -.537E-04
   0.418E+00 -.286E+00 0.222E+02   -.365E+00 0.232E+00 -.224E+02   -.772E-01 0.467E-01 0.136E+00   0.298E-05 -.209E-05 -.722E-04
   0.182E-01 0.173E-01 0.883E+02   -.293E-02 -.444E-01 -.882E+02   0.309E-02 -.107E-01 -.528E-01   0.322E-05 0.156E-05 -.554E-04
   -.187E+00 0.329E+00 0.217E+02   0.188E+00 -.288E+00 -.219E+02   0.635E-02 -.758E-01 0.171E+00   -.126E-05 0.651E-06 -.726E-04
   -.445E-02 -.202E-01 0.883E+02   -.355E-01 0.238E-01 -.882E+02   0.141E-01 0.230E-02 -.975E-01   0.866E-06 -.136E-05 -.578E-04
   0.520E+00 -.136E+00 0.222E+02   -.455E+00 0.942E-01 -.223E+02   -.751E-01 0.451E-01 0.125E+00   -.101E-05 0.200E-05 -.714E-04
   0.173E-01 0.139E-01 0.883E+02   -.620E-02 -.422E-01 -.882E+02   0.103E-01 -.149E-01 -.507E-01   -.632E-06 -.107E-05 -.516E-04
   -.103E+00 0.325E+00 0.218E+02   0.107E+00 -.288E+00 -.219E+02   0.998E-02 -.790E-01 0.169E+00   -.192E-05 0.722E-06 -.727E-04
   -.266E-01 0.975E-02 0.883E+02   0.407E-01 0.207E-01 -.882E+02   0.207E-01 0.756E-03 -.466E-01   -.103E-05 0.192E-05 -.549E-04
   -.329E+00 -.110E+00 0.217E+02   0.267E+00 0.132E+00 -.219E+02   0.900E-01 0.106E-01 0.169E+00   0.181E-05 -.321E-05 -.737E-04
   0.254E+02 0.424E+02 -.239E+03   -.389E+02 -.652E+02 0.213E+03   0.135E+02 0.228E+02 0.262E+02   -.455E-04 -.565E-04 -.168E-03
   0.895E+01 0.149E+02 -.397E+03   -.230E+02 -.390E+02 0.430E+03   0.141E+02 0.241E+02 -.328E+02   0.525E-04 0.226E-04 -.104E-03
   0.103E+02 0.181E+02 -.397E+03   -.238E+02 -.420E+02 0.430E+03   0.135E+02 0.239E+02 -.330E+02   -.328E-04 0.460E-04 -.120E-03
   0.227E+02 0.430E+02 -.239E+03   -.355E+02 -.664E+02 0.212E+03   0.128E+02 0.234E+02 0.262E+02   -.498E-05 -.395E-04 -.169E-03
   0.789E+01 0.144E+02 -.396E+03   -.214E+02 -.389E+02 0.429E+03   0.135E+02 0.246E+02 -.326E+02   0.252E-04 0.128E-04 -.114E-03
   0.221E+02 0.381E+02 -.238E+03   -.355E+02 -.614E+02 0.212E+03   0.135E+02 0.233E+02 0.262E+02   -.255E-04 -.183E-04 -.170E-03
   0.326E+02 -.463E+02 -.900E+02   -.369E+02 0.520E+02 0.934E+02   0.430E+01 -.575E+01 -.348E+01   -.543E-05 0.370E-05 -.129E-04
   -.562E+02 0.639E+01 -.908E+02   0.633E+02 -.743E+01 0.943E+02   -.708E+01 0.103E+01 -.355E+01   0.653E-05 -.232E-05 -.120E-04
   -.425E+02 -.707E+02 -.582E+02   0.466E+02 0.777E+02 0.582E+02   -.417E+01 -.698E+01 0.117E-01   0.207E-04 0.290E-04 -.202E-04
   0.110E+02 0.171E+02 0.380E+02   -.121E+02 -.189E+02 -.450E+02   0.110E+01 0.171E+01 0.701E+01   0.159E-05 -.533E-05 -.637E-04
   -.403E+02 -.702E+02 -.576E+02   0.443E+02 0.772E+02 0.575E+02   -.405E+01 -.705E+01 0.788E-01   0.132E-04 0.315E-04 -.209E-04
   0.112E+02 0.185E+02 0.379E+02   -.123E+02 -.203E+02 -.449E+02   0.110E+01 0.179E+01 0.700E+01   -.933E-05 -.268E-05 -.637E-04
   0.339E+02 -.452E+02 -.899E+02   -.384E+02 0.508E+02 0.934E+02   0.448E+01 -.559E+01 -.348E+01   -.744E-06 0.710E-06 -.162E-04
   -.565E+02 0.438E+01 -.905E+02   0.637E+02 -.516E+01 0.940E+02   -.712E+01 0.775E+00 -.353E+01   -.315E-06 -.316E-06 -.168E-04
   -.406E+02 -.723E+02 -.585E+02   0.446E+02 0.793E+02 0.585E+02   -.400E+01 -.708E+01 -.231E-01   0.144E-04 0.234E-04 -.200E-04
   0.104E+02 0.169E+02 0.381E+02   -.114E+02 -.187E+02 -.452E+02   0.105E+01 0.171E+01 0.701E+01   -.888E-07 -.557E-05 -.612E-04
   0.327E+02 -.466E+02 -.899E+02   -.370E+02 0.523E+02 0.934E+02   0.433E+01 -.570E+01 -.347E+01   -.142E-05 0.317E-05 -.157E-04
   -.568E+02 0.505E+01 -.905E+02   0.639E+02 -.598E+01 0.940E+02   -.709E+01 0.925E+00 -.352E+01   0.438E-05 0.419E-06 -.144E-04
 -----------------------------------------------------------------------------------------------
   -.634E+02 -.112E+03 0.216E+02   -.284E-13 0.853E-13 0.995E-13   0.634E+02 0.112E+03 -.216E+02   0.117E-04 0.419E-04 -.389E-02
 
 
 POSITION                                       TOTAL-FORCE (eV/Angst)
 -----------------------------------------------------------------------------------
      0.00000      0.00000      0.00000         0.007983     -0.002696      0.011842
      0.00136      0.00483      5.16299        -0.011444      0.011664      0.004637
      4.76194      8.27292     10.80052         0.004173     -0.001011     -0.023791
     -1.59263      2.75851      0.00000        -0.023656     -0.010406     -0.025230
     -1.58751      2.76477      5.13729        -0.000933     -0.002001      0.002396
      7.95391      2.76635     10.13682        -0.026055     -0.018630      0.016058
     -3.18525      5.51702      0.00000         0.003816      0.022488     -0.015620
     -3.18342      5.51818      5.13625         0.002897     -0.001182     -0.000466
     -3.18515      5.54159     10.25354         0.006350      0.025403      0.009024
      3.18525      0.00000      0.00000        -0.026898     -0.005990     -0.015529
      3.19077      0.00610      5.13768        -0.002842      0.002233     -0.001177
      3.17939      0.00852     10.14740        -0.023902     -0.011841      0.005396
      1.59263      2.75851      0.00000        -0.002740      0.028997     -0.018924
      1.59480      2.76004      5.13577        -0.004882      0.005958      0.001426
      1.59724      2.78036     10.25022        -0.002379      0.034342      0.008608
     -0.00000      5.51702      0.00000         0.007608     -0.017900      0.016077
      0.00160      5.52189      5.16310        -0.010003     -0.002727      0.003433
     -0.01920      5.50469     10.79546         0.008248     -0.017117     -0.024825
      6.37050      0.00000      0.00000         0.008412      0.038210     -0.015692
      6.37270      0.00097      5.13610         0.005440      0.012609      0.000644
      6.37180      0.02021     10.25969         0.010492      0.042605      0.004678
      4.77788      2.75851      0.00000         0.015993     -0.007463      0.010255
      4.77939      2.76381      5.16298        -0.003183      0.004856      0.005583
      4.76418      2.75135     10.79721         0.017902     -0.008914     -0.025780
      3.18525      5.51702      0.00000        -0.021267     -0.012224     -0.014746
      3.19089      5.52332      5.13830        -0.000730     -0.002863     -0.002260
      3.17716      5.52839     10.14974        -0.024788     -0.015414      0.005833
      0.00000      1.83901      2.60418         0.013109     -0.037835      0.023150
      0.01810      1.81964      7.70380        -0.000257     -0.032994     -0.005625
     -1.59263      4.59751      2.60418         0.033560      0.016733      0.024548
     -1.57451      4.62994      7.70389         0.025830      0.010832     -0.005585
     -3.18525      7.35602      2.60418        -0.032874      0.006752     -0.008555
     -3.20195      7.36032      7.68132        -0.020856      0.002179      0.004092
      3.18525      1.83901      2.60418         0.032971      0.024310      0.024318
      3.20419      1.86943      7.70401         0.024893      0.020889     -0.001937
      1.59263      4.59751      2.60418        -0.035144     -0.001329     -0.008359
      1.57611      4.60182      7.68161        -0.025002     -0.007187      0.004229
      0.00000      7.35602      2.60418         0.018175     -0.037978      0.022074
      0.01767      7.33605      7.70659         0.007367     -0.035054     -0.002487
      6.37050      1.83901      2.60418        -0.025950      0.005767     -0.008253
      6.35234      1.84096      7.68010        -0.009882      0.003130      0.006550
      4.77788      4.59751      2.60418         0.021198     -0.043242      0.022395
      4.79441      4.57725      7.70832         0.013527     -0.041905     -0.004224
      3.18525      7.35602      2.60418         0.034630      0.031102      0.023991
      3.20424      7.38827      7.70709         0.028120      0.031949     -0.001978
      4.73459      8.24128     12.96464         0.000282     -0.009085      0.006840
     -1.99419      7.58284     13.52510         0.006159      0.005741      0.025590
      7.58719      2.13692     13.52243        -0.001607     -0.000331      0.045764
      4.73697      2.70008     12.96246        -0.011477     -0.000706      0.005805
      2.76339      4.81606     13.52195         0.004164      0.009875      0.025881
     -0.07476      5.41365     12.96763        -0.001092      0.006024      0.008231
      9.00253      0.68509     13.40958        -0.005096      0.007414     -0.008225
     -3.94975      8.13689     13.41672         0.001650     -0.000254     -0.007532
      3.28653      0.14995     13.50160         0.000506      0.001805     -0.004596
     -2.12940      7.37432     12.55488        -0.008912     -0.010325     -0.024100
     -1.47954      2.98765     13.49104         0.002879      0.004326     -0.010221
      7.45267      1.91828     12.55507        -0.005590     -0.008965     -0.034284
      4.20373      3.40232     13.40781        -0.001774      0.000778     -0.005888
      5.61277      2.62745     13.41260         0.009014     -0.001369     -0.009766
      3.24606      5.67044     13.50266         0.001977      0.001846     -0.004542
      2.63407      4.60847     12.55048        -0.008438     -0.013340     -0.026001
     -0.59050      6.12966     13.41228        -0.001272      0.000528     -0.005266
      0.80001      5.32269     13.41716         0.001601     -0.001064     -0.007883
 -----------------------------------------------------------------------------------
    total drift:                                0.011539      0.007849      0.007817


--------------------------------------------------------------------------------------------------------



  FREE ENERGIE OF THE ION-ELECTRON SYSTEM (eV)
  ---------------------------------------------------
  free  energy   TOTEN  =       -67.87208193 eV

  energy  without entropy=      -67.87208193  energy(sigma->0) =      -67.87208193
 


--------------------------------------------------------------------------------------------------------


    POTLOK:  cpu time    8.9097: real time    8.9109


--------------------------------------------------------------------------------------------------------


 stress matrix after NEB project (eV)
     -7.45861     -1.78591     -0.16076
     -1.78591    -10.79173     -0.10012
     -0.16076     -0.10012     -0.81043
  FORCES: max atom, RMS     0.045793    0.020829
  FORCE total and by dimension    0.165325    0.045764
  Stress total and by dimension   13.386556   10.791733
     LOOP+:  cpu time  519.4726: real time  521.1150
 vacuum level on the upper side and lower side of the slab         2.311         3.137
    4ORBIT:  cpu time    0.0000: real time    0.0000
 BZINTS: Fermi energy: -0.657074;138.000000 electrons
         Band energy:-887.101931;  BLOECHL correction: -0.111453

 total amount of memory used by VASP MPI-rank0    62217. kBytes
=======================================================================

   base      :      30000. kBytes
   nonlr-proj:       6314. kBytes
   fftplans  :       6459. kBytes
   grid      :      11407. kBytes
   one-center:         24. kBytes
   wavefun   :       8013. kBytes
 
  
  
 General timing and accounting informations for this job:
 ========================================================
  
                  Total CPU time used (sec):      571.398
                            User time (sec):      561.381
                          System time (sec):       10.017
                         Elapsed time (sec):      583.300
  
                   Maximum memory used (kb):      268888.
                   Average memory used (kb):           0.
  
                          Minor page faults:       264112
                          Major page faults:            0
                 Voluntary context switches:        47427
