<?xml version="1.0" encoding="ISO-8859-1"?>
<modeling>
 <generator>
  <i name="program" type="string">vasp </i>
  <i name="version" type="string">5.4.4.18Apr17-6-g9f103f2a35  </i>
  <i name="subversion" type="string">(build Jun 08 2018 12:06:12) complex            parallel </i>
  <i name="platform" type="string">LinuxIFC </i>
  <i name="date" type="string">2019 06 06 </i>
  <i name="time" type="string">06:18:26 </i>
 </generator>
 <incar>
  <i type="string" name="SYSTEM"> Mg_slab_in_a_box</i>
  <i type="string" name="PREC">accurate</i>
  <i type="string" name="ALGO"> V</i>
  <i type="int" name="NELM">   300</i>
  <i type="int" name="NELMIN">     6</i>
  <i name="EDIFF">      0.00000500</i>
  <i name="ENCUT">    520.00000000</i>
  <i type="string" name="LREAL"> AUTO</i>
  <i type="logical" name="LPLANE"> T  </i>
  <i type="int" name="ISMEAR">    -5</i>
  <i type="logical" name="LWAVE"> F  </i>
  <i type="logical" name="LCHARG"> T  </i>
  <i type="logical" name="LVTOT"> T  </i>
  <i type="logical" name="LVHAR"> T  </i>
  <i type="logical" name="LSCALU"> F  </i>
  <i type="logical" name="LASPH"> T  </i>
  <i type="logical" name="LAECHG"> T  </i>
  <v type="int" name="KPOINT_BSE">    -1     0     0     0</v>
  <i type="int" name="NELM">   300</i>
  <i type="string" name="GGA"> BO</i>
  <i name="PARAM1">      0.18333333</i>
  <i name="PARAM2">      0.22000000</i>
  <i type="logical" name="LUSE_VDW"> T  </i>
  <i name="AGGAC">      0.00000000</i>
  <i type="logical" name="LDIPOL"> T  </i>
  <i type="int" name="IDIPOL">     3</i>
  <i type="logical" name="LASPH"> T  </i>
 </incar>
 <structure name="primitive_cell" >
  <crystal>
   <varray name="basis" >
    <v>       9.55575275       0.00000000       0.00000000 </v>
    <v>      -4.77787638       8.27552464       0.00000000 </v>
    <v>       0.00000000       0.00000000      32.62509537 </v>
   </varray>
   <i name="volume">   2579.95558872 </i>
   <varray name="rec_basis" >
    <v>       0.10464900       0.06041913       0.00000000 </v>
    <v>       0.00000000       0.12083826       0.00000000 </v>
    <v>       0.00000000       0.00000000       0.03065125 </v>
   </varray>
  </crystal>
  <varray name="positions" >
   <v>       0.00000000       0.00000000       0.00000000 </v>
   <v>       0.00000002      -0.33333328       0.00000000 </v>
   <v>      -0.33333330      -0.33333328       0.00000000 </v>
   <v>      -0.33333332       0.00000000       0.00000000 </v>
   <v>       0.33333334       0.00000000       0.00000000 </v>
   <v>       0.00000001       0.33333336       0.00000000 </v>
   <v>       0.33333335       0.33333336       0.00000000 </v>
   <v>      -0.22222216      -0.11111106       0.07982145 </v>
   <v>       0.11111116      -0.11111106       0.07982145 </v>
   <v>       0.11111113       0.22222222       0.07982145 </v>
   <v>      -0.22222219      -0.44444439       0.07982145 </v>
   <v>      -0.22222221       0.22222222       0.07982145 </v>
   <v>       0.44444450       0.22222222       0.07982145 </v>
   <v>       0.00043423       0.00058371       0.15825199 </v>
   <v>       0.33333336      -0.33333328       0.00000000 </v>
   <v>      -0.33333332       0.33333336       0.00000000 </v>
   <v>       0.44444450      -0.44444439       0.07982145 </v>
   <v>       0.44444451      -0.11111106       0.07982145 </v>
   <v>       0.11111114      -0.44444439       0.07982145 </v>
   <v>      -0.33236269      -0.33257153       0.15749544 </v>
   <v>      -0.33304477       0.00011719       0.15742793 </v>
   <v>       0.00026132      -0.33319292       0.15743242 </v>
   <v>       0.33365361       0.33351801       0.15741769 </v>
   <v>       0.00091403       0.33409026       0.15746449 </v>
   <v>       0.33427909       0.00073660       0.15747632 </v>
   <v>      -0.33285524       0.33397350       0.15825194 </v>
   <v>       0.33379516      -0.33274474       0.15825548 </v>
   <v>       0.10962394      -0.11059130       0.23544201 </v>
   <v>       0.11183484       0.21988226       0.23613116 </v>
   <v>      -0.21828712      -0.10721440       0.23623206 </v>
   <v>      -0.22400488       0.22245802       0.23540468 </v>
   <v>      -0.22171598      -0.44689299       0.23626964 </v>
   <v>       0.44826479       0.22589905       0.23613759 </v>
   <v>       0.44297621      -0.44392414       0.23545103 </v>
   <v>       0.11496576      -0.44052659       0.23613396 </v>
   <v>       0.44508707      -0.11352496       0.23621655 </v>
   <v>      -0.00049064       0.33428042       0.31070609 </v>
   <v>       0.33323454       0.00102990       0.31103050 </v>
   <v>      -0.33349288      -0.33195948       0.31110222 </v>
   <v>       0.00149502      -0.33036377       0.31428383 </v>
   <v>       0.33513683       0.33597411       0.31418199 </v>
   <v>      -0.33197659       0.00244263       0.31447233 </v>
   <v>      -0.00182501      -0.00031453       0.33104943 </v>
   <v>       0.33057904      -0.33482258       0.33089441 </v>
   <v>      -0.33519969       0.33246796       0.33094812 </v>
   <v>       0.22271088      -0.10890009       0.38482278 </v>
   <v>      -0.10418477       0.23180110       0.38482854 </v>
   <v>      -0.00659890      -0.00413775       0.39738255 </v>
   <v>      -0.44590738      -0.44312063       0.38468802 </v>
   <v>      -0.01650205       0.08278448       0.41102031 </v>
   <v>       0.07828699      -0.01675195       0.41123913 </v>
   <v>       0.24945857      -0.08370339       0.41456114 </v>
   <v>      -0.07689716       0.25822200       0.41447940 </v>
   <v>      -0.31770034      -0.31479352       0.41387339 </v>
   <v>       0.35299180       0.01811915       0.41384088 </v>
   <v>       0.02567900       0.36102246       0.41351734 </v>
   <v>       0.31926486      -0.34582363       0.39747409 </v>
   <v>      -0.34114437       0.32627270       0.39731571 </v>
   <v>      -0.41983128      -0.41803521       0.41446483 </v>
   <v>       0.30855309      -0.25930312       0.41110326 </v>
   <v>      -0.25388094       0.31749630       0.41111307 </v>
   <v>      -0.35451803       0.41113079       0.41096610 </v>
   <v>       0.40531243      -0.35681595       0.41125276 </v>
  </varray>
 </structure>
 <varray name="primitive_index" >
  <v type="int" >        1 </v>
  <v type="int" >        7 </v>
  <v type="int" >       25 </v>
  <v type="int" >       19 </v>
  <v type="int" >       10 </v>
  <v type="int" >        4 </v>
  <v type="int" >       13 </v>
  <v type="int" >       44 </v>
  <v type="int" >       32 </v>
  <v type="int" >       28 </v>
  <v type="int" >       42 </v>
  <v type="int" >       40 </v>
  <v type="int" >       34 </v>
  <v type="int" >        2 </v>
  <v type="int" >       16 </v>
  <v type="int" >       22 </v>
  <v type="int" >       36 </v>
  <v type="int" >       38 </v>
  <v type="int" >       30 </v>
  <v type="int" >       26 </v>
  <v type="int" >       20 </v>
  <v type="int" >        8 </v>
  <v type="int" >       14 </v>
  <v type="int" >        5 </v>
  <v type="int" >       11 </v>
  <v type="int" >       23 </v>
  <v type="int" >       17 </v>
  <v type="int" >       33 </v>
  <v type="int" >       29 </v>
  <v type="int" >       45 </v>
  <v type="int" >       41 </v>
  <v type="int" >       43 </v>
  <v type="int" >       35 </v>
  <v type="int" >       37 </v>
  <v type="int" >       31 </v>
  <v type="int" >       39 </v>
  <v type="int" >        6 </v>
  <v type="int" >       12 </v>
  <v type="int" >       27 </v>
  <v type="int" >        9 </v>
  <v type="int" >       15 </v>
  <v type="int" >       21 </v>
  <v type="int" >        3 </v>
  <v type="int" >       18 </v>
  <v type="int" >       24 </v>
  <v type="int" >       55 </v>
  <v type="int" >       57 </v>
  <v type="int" >       46 </v>
  <v type="int" >       61 </v>
  <v type="int" >       52 </v>
  <v type="int" >       53 </v>
  <v type="int" >       47 </v>
  <v type="int" >       48 </v>
  <v type="int" >       60 </v>
  <v type="int" >       54 </v>
  <v type="int" >       56 </v>
  <v type="int" >       51 </v>
  <v type="int" >       49 </v>
  <v type="int" >       50 </v>
  <v type="int" >       62 </v>
  <v type="int" >       59 </v>
  <v type="int" >       58 </v>
  <v type="int" >       63 </v>
 </varray>
 <kpoints>
  <generation param="Gamma">
   <v type="int" name="divisions">       3        3        1 </v>
   <v name="usershift">      0.00000000       0.00000000       0.00000000 </v>
   <v name="genvec1">      0.33333333       0.00000000       0.00000000 </v>
   <v name="genvec2">      0.00000000       0.33333333       0.00000000 </v>
   <v name="genvec3">      0.00000000       0.00000000       1.00000000 </v>
   <v name="shift">      0.00000000       0.00000000       0.00000000 </v>
  </generation>
  <varray name="kpointlist" >
   <v>       0.00000000       0.00000000       0.00000000 </v>
   <v>       0.33333333      -0.00000000       0.00000000 </v>
   <v>       0.00000000       0.33333333       0.00000000 </v>
   <v>       0.33333333       0.33333333       0.00000000 </v>
   <v>      -0.33333333       0.33333333       0.00000000 </v>
  </varray>
  <varray name="weights" >
   <v>       0.11111111 </v>
   <v>       0.22222222 </v>
   <v>       0.22222222 </v>
   <v>       0.22222222 </v>
   <v>       0.22222222 </v>
  </varray>
  <varray name="tetrahedronlist"  type="int" >
   <v type="int" >        2        2        3        3        4 </v>
   <v type="int" >        2        1        2        3        3 </v>
   <v type="int" >        2        1        1        2        3 </v>
   <v type="int" >        2        2        3        4        4 </v>
   <v type="int" >        2        2        2        3        4 </v>
   <v type="int" >        2        1        2        2        3 </v>
   <v type="int" >        2        2        4        4        5 </v>
   <v type="int" >        2        2        2        4        4 </v>
   <v type="int" >        4        2        2        2        4 </v>
   <v type="int" >        2        2        4        5        5 </v>
   <v type="int" >        2        2        2        4        5 </v>
   <v type="int" >        2        1        3        5        5 </v>
   <v type="int" >        2        1        2        5        5 </v>
   <v type="int" >        2        1        2        2        5 </v>
   <v type="int" >        2        1        3        3        5 </v>
   <v type="int" >        2        1        1        3        5 </v>
   <v type="int" >        2        1        1        2        5 </v>
   <v type="int" >        2        3        3        4        5 </v>
   <v type="int" >        4        3        3        3        4 </v>
   <v type="int" >        2        3        4        5        5 </v>
   <v type="int" >        2        3        4        4        5 </v>
   <v type="int" >        2        3        3        4        4 </v>
   <v type="int" >        4        4        5        5        5 </v>
   <v type="int" >        2        4        4        5        5 </v>
  </varray>
  <i name="volumeweight">      0.01851852 </i>
 </kpoints>
 <parameters>
  <separator name="general" >
   <i type="string" name="SYSTEM">Mg_slab_in_a_box</i>
   <i type="logical" name="LCOMPAT"> F  </i>
  </separator>
  <separator name="electronic" >
   <i type="string" name="PREC">accura</i>
   <i name="ENMAX">    520.00000000</i>
   <i name="ENAUG">    605.39200000</i>
   <i name="EDIFF">      0.00000500</i>
   <i type="int" name="IALGO">    48</i>
   <i type="int" name="IWAVPR">    10</i>
   <i type="int" name="NBANDS">   102</i>
   <i name="NELECT">    138.00000000</i>
   <i type="int" name="TURBO">     0</i>
   <i type="int" name="IRESTART">     0</i>
   <i type="int" name="NREBOOT">     0</i>
   <i type="int" name="NMIN">     0</i>
   <i name="EREF">      0.00000000</i>
   <separator name="electronic smearing" >
    <i type="int" name="ISMEAR">    -5</i>
    <i name="SIGMA">      0.20000000</i>
    <i name="KSPACING">      0.50000000</i>
    <i type="logical" name="KGAMMA"> T  </i>
   </separator>
   <separator name="electronic projectors" >
    <i type="logical" name="LREAL"> T  </i>
    <v name="ROPT">     -0.00025000     -0.00025000     -0.00025000</v>
    <i type="int" name="LMAXPAW">  -100</i>
    <i type="int" name="LMAXMIX">     2</i>
    <i type="logical" name="NLSPLINE"> F  </i>
   </separator>
   <separator name="electronic startup" >
    <i type="int" name="ISTART">     0</i>
    <i type="int" name="ICHARG">     2</i>
    <i type="int" name="INIWAV">     1</i>
   </separator>
   <separator name="electronic spin" >
    <i type="int" name="ISPIN">     1</i>
    <i type="logical" name="LNONCOLLINEAR"> F  </i>
    <v name="MAGMOM">      1.00000000      1.00000000      1.00000000      1.00000000      1.00000000      1.00000000      1.00000000      1.00000000      1.00000000      1.00000000      1.00000000      1.00000000      1.00000000      1.00000000      1.00000000      1.00000000      1.00000000      1.00000000      1.00000000      1.00000000
      1.00000000      1.00000000      1.00000000      1.00000000      1.00000000      1.00000000      1.00000000      1.00000000      1.00000000      1.00000000      1.00000000      1.00000000      1.00000000      1.00000000      1.00000000      1.00000000      1.00000000      1.00000000      1.00000000      1.00000000
      1.00000000      1.00000000      1.00000000      1.00000000      1.00000000      1.00000000      1.00000000      1.00000000      1.00000000      1.00000000      1.00000000      1.00000000      1.00000000      1.00000000      1.00000000      1.00000000      1.00000000      1.00000000      1.00000000      1.00000000
      1.00000000      1.00000000      1.00000000</v>
    <i name="NUPDOWN">     -1.00000000</i>
    <i type="logical" name="LSORBIT"> F  </i>
    <v name="SAXIS">      0.00000000      0.00000000      1.00000000</v>
    <i type="logical" name="LSPIRAL"> F  </i>
    <v name="QSPIRAL">      0.00000000      0.00000000      0.00000000</v>
    <i type="logical" name="LZEROZ"> F  </i>
   </separator>
   <separator name="electronic exchange-correlation" >
    <i type="logical" name="LASPH"> T  </i>
    <i type="logical" name="LMETAGGA"> F  </i>
   </separator>
   <separator name="electronic convergence" >
    <i type="int" name="NELM">   300</i>
    <i type="int" name="NELMDL">   -12</i>
    <i type="int" name="NELMIN">     6</i>
    <i name="ENINI">    520.00000000</i>
    <separator name="electronic convergence detail" >
     <i type="logical" name="LDIAG"> T  </i>
     <i type="logical" name="LSUBROT"> F  </i>
     <i name="WEIMIN">      0.00000000</i>
     <i name="EBREAK">      0.00000001</i>
     <i name="DEPER">      0.30000000</i>
     <i type="int" name="NRMM">     4</i>
     <i name="TIME">      0.40000000</i>
    </separator>
   </separator>
   <separator name="electronic mixer" >
    <i name="AMIX">      0.40000000</i>
    <i name="BMIX">      1.00000000</i>
    <i name="AMIN">      0.10000000</i>
    <i name="AMIX_MAG">      1.60000000</i>
    <i name="BMIX_MAG">      1.00000000</i>
    <separator name="electronic mixer details" >
     <i type="int" name="IMIX">     4</i>
     <i type="logical" name="MIXFIRST"> F  </i>
     <i type="int" name="MAXMIX">   -45</i>
     <i name="WC">    100.00000000</i>
     <i type="int" name="INIMIX">     1</i>
     <i type="int" name="MIXPRE">     1</i>
     <i type="int" name="MREMOVE">     5</i>
    </separator>
   </separator>
   <separator name="electronic dipolcorrection" >
    <i type="logical" name="LDIPOL"> T  </i>
    <i type="logical" name="LMONO"> F  </i>
    <i type="int" name="IDIPOL">     3</i>
    <i name="EPSILON">      1.00000000</i>
    <v name="DIPOL">   -100.00000000   -100.00000000   -100.00000000</v>
    <i name="EFIELD">      0.00000000</i>
   </separator>
  </separator>
  <separator name="grids" >
   <i type="int" name="NGX">    72</i>
   <i type="int" name="NGY">    72</i>
   <i type="int" name="NGZ">   250</i>
   <i type="int" name="NGXF">   144</i>
   <i type="int" name="NGYF">   144</i>
   <i type="int" name="NGZF">   500</i>
   <i type="logical" name="ADDGRID"> F  </i>
  </separator>
  <separator name="ionic" >
   <i type="int" name="NSW">     0</i>
   <i type="int" name="IBRION">    -1</i>
   <i type="int" name="MDALGO">     0</i>
   <i type="int" name="ISIF">     2</i>
   <i name="PSTRESS">      0.00000000</i>
   <i name="EDIFFG">      0.00005000</i>
   <i type="int" name="NFREE">     0</i>
   <i name="POTIM">      0.50000000</i>
   <i name="SMASS">     -3.00000000</i>
   <i name="SCALEE">      1.00000000</i>
  </separator>
  <separator name="ionic md" >
   <i name="TEBEG">      0.00010000</i>
   <i name="TEEND">      0.00010000</i>
   <i type="int" name="NBLOCK">     1</i>
   <i type="int" name="KBLOCK">     1</i>
   <i type="int" name="NPACO">   256</i>
   <i name="APACO">     16.00000000</i>
  </separator>
  <separator name="symmetry" >
   <i type="int" name="ISYM">     2</i>
   <i name="SYMPREC">      0.00001000</i>
  </separator>
  <separator name="dos" >
   <i type="int" name="LORBIT">     0</i>
   <v name="RWIGS">     -1.00000000     -1.00000000     -1.00000000</v>
   <i type="int" name="NEDOS">   301</i>
   <i name="EMIN">     10.00000000</i>
   <i name="EMAX">    -10.00000000</i>
   <i name="EFERMI">      0.00000000</i>
  </separator>
  <separator name="writing" >
   <i type="int" name="NWRITE">     2</i>
   <i type="logical" name="LWAVE"> F  </i>
   <i type="logical" name="LDOWNSAMPLE"> F  </i>
   <i type="logical" name="LCHARG"> T  </i>
   <i type="logical" name="LPARD"> F  </i>
   <i type="logical" name="LVTOT"> F  </i>
   <i type="logical" name="LVHAR"> T  </i>
   <i type="logical" name="LELF"> F  </i>
   <i type="logical" name="LOPTICS"> F  </i>
   <v name="STM">      0.00000000      0.00000000      0.00000000      0.00000000      0.00000000      0.00000000      0.00000000</v>
  </separator>
  <separator name="performance" >
   <i type="int" name="NPAR">     3</i>
   <i type="int" name="NSIM">     4</i>
   <i type="int" name="NBLK">    -1</i>
   <i type="logical" name="LPLANE"> T  </i>
   <i type="logical" name="LSCALAPACK"> T  </i>
   <i type="logical" name="LSCAAWARE"> F  </i>
   <i type="logical" name="LSCALU"> F  </i>
   <i type="logical" name="LASYNC"> F  </i>
   <i type="logical" name="LORBITALREAL"> F  </i>
  </separator>
  <separator name="miscellaneous" >
   <i type="int" name="IDIOT">     3</i>
   <i type="int" name="ISPECIAL">     0</i>
   <i type="logical" name="LMUSIC"> F  </i>
   <v name="POMASS">     24.30500000     16.00000000      1.00000000</v>
   <v name="DARWINR">      0.00000000      0.00000000      0.00000000</v>
   <v name="DARWINV">      1.00000000      1.00000000      1.00000000</v>
   <i type="logical" name="LCORR"> T  </i>
  </separator>
  <i type="logical" name="GGA_COMPAT"> T  </i>
  <i type="logical" name="LBERRY"> F  </i>
  <i type="int" name="ICORELEVEL">     0</i>
  <i type="logical" name="LDAU"> F  </i>
  <i type="int" name="I_CONSTRAINED_M">     0</i>
  <separator name="electronic exchange-correlation" >
   <i type="string" name="GGA">BO</i>
   <i type="int" name="VOSKOWN">     0</i>
   <i type="logical" name="LHFCALC"> F  </i>
   <i type="string" name="PRECFOCK"></i>
   <i type="logical" name="LSYMGRAD"> F  </i>
   <i type="logical" name="LHFONE"> F  </i>
   <i type="logical" name="LRHFCALC"> F  </i>
   <i type="logical" name="LTHOMAS"> F  </i>
   <i type="logical" name="LMODELHF"> F  </i>
   <i name="ENCUT4O">     -1.00000000</i>
   <i type="int" name="EXXOEP">     0</i>
   <i type="int" name="FOURORBIT">     0</i>
   <i name="AEXX">      0.00000000</i>
   <i name="HFALPHA">      0.00000000</i>
   <i name="MCALPHA">      0.00000000</i>
   <i name="ALDAX">      1.00000000</i>
   <i name="AGGAX">      1.00000000</i>
   <i name="ALDAC">      1.00000000</i>
   <i name="AGGAC">      0.00000000</i>
   <i type="int" name="NKREDX">     1</i>
   <i type="int" name="NKREDY">     1</i>
   <i type="int" name="NKREDZ">     1</i>
   <i type="logical" name="SHIFTRED"> F  </i>
   <i type="logical" name="ODDONLY"> F  </i>
   <i type="logical" name="EVENONLY"> F  </i>
   <i type="int" name="LMAXFOCK">     0</i>
   <i type="int" name="NMAXFOCKAE">     0</i>
   <i type="logical" name="LFOCKAEDFT"> F  </i>
   <i name="HFSCREEN">      0.00000000</i>
   <i name="HFSCREENC">      0.00000000</i>
   <i type="int" name="NBANDSGWLOW">     0</i>
  </separator>
  <separator name="vdW DFT" >
   <i type="logical" name="LUSE_VDW"> T  </i>
   <i name="Zab_VDW">     -0.84910000</i>
   <i name="PARAM1">      0.18333333</i>
   <i name="PARAM2">      0.22000000</i>
   <i name="PARAM3">      0.00000000</i>
  </separator>
  <separator name="model GW" >
   <i type="int" name="MODEL_GW">     0</i>
   <i name="MODEL_EPS0">     24.57100561</i>
   <i name="MODEL_ALPHA">      1.00000000</i>
  </separator>
  <separator name="linear response parameters" >
   <i type="logical" name="LEPSILON"> F  </i>
   <i type="logical" name="LRPA"> F  </i>
   <i type="logical" name="LNABLA"> F  </i>
   <i type="logical" name="LVEL"> F  </i>
   <i type="int" name="KINTER">     0</i>
   <i name="CSHIFT">      0.10000000</i>
   <i name="OMEGAMAX">     -1.00000000</i>
   <i name="DEG_THRESHOLD">      0.00200000</i>
   <i name="RTIME">     -0.10000000</i>
   <i name="WPLASMAI">      0.00000000</i>
   <v name="DFIELD">      0.00000000      0.00000000      0.00000000</v>
   <v name="WPLASMA">      0.00000000      0.00000000      0.00000000      0.00000000      0.00000000      0.00000000      0.00000000      0.00000000      0.00000000</v>
  </separator>
  <separator name="orbital magnetization" >
   <i type="logical" name="NUCIND"> F  </i>
   <v name="MAGPOS">      0.00000000      0.00000000      0.00000000</v>
   <i type="logical" name="LNICSALL"> T  </i>
   <i type="logical" name="ORBITALMAG"> F  </i>
   <i type="logical" name="LMAGBLOCH"> F  </i>
   <i type="logical" name="LCHIMAG"> F  </i>
   <i type="logical" name="LGAUGE"> T  </i>
   <i type="int" name="MAGATOM">     0</i>
   <v name="MAGDIPOL">      0.00000000      0.00000000      0.00000000</v>
   <v name="AVECCONST">      0.00000000      0.00000000      0.00000000</v>
  </separator>
  <separator name="response functions" >
   <i type="logical" name="LADDER"> F  </i>
   <i type="logical" name="LRPAFORCE"> F  </i>
   <i type="logical" name="LFXC"> F  </i>
   <i type="logical" name="LHARTREE"> T  </i>
   <i type="int" name="IBSE">     0</i>
   <v type="int" name="KPOINT">    -1     0     0     0</v>
   <i type="logical" name="LTCTE"> F  </i>
   <i type="logical" name="LTETE"> F  </i>
   <i type="logical" name="LTRIPLET"> F  </i>
   <i type="logical" name="LFXCEPS"> F  </i>
   <i type="logical" name="LFXHEG"> F  </i>
   <i type="int" name="NATURALO">     2</i>
   <i type="logical" name="L2ORDER"> F  </i>
   <i type="logical" name="LMP2LT"> F  </i>
   <i type="logical" name="LUSEW"> F  </i>
   <i name="ENCUTGW">     -2.00000000</i>
   <i name="ENCUTGWSOFT">     -2.00000000</i>
   <i name="ENCUTLF">     -1.00000000</i>
   <i type="int" name="LMAXMP2">    -1</i>
   <i name="SCISSOR">      0.00000000</i>
   <i type="int" name="NOMEGA">     0</i>
   <i type="int" name="NOMEGAR">     0</i>
   <i type="int" name="NBANDSGW">    -1</i>
   <i type="int" name="NBANDSO">    -1</i>
   <i type="int" name="NBANDSV">    -1</i>
   <i type="int" name="NELM">   300</i>
   <i type="int" name="NELMHF">     1</i>
   <i type="int" name="DIM">     3</i>
   <i type="int" name="ANTIRES">     0</i>
   <i name="OMEGAMAX">    -30.00000000</i>
   <i name="OMEGAMIN">    -30.00000000</i>
   <i name="OMEGATL">   -200.00000000</i>
   <i type="int" name="OMEGAGRID">   140</i>
   <i name="CSHIFT">     -0.10000000</i>
   <i type="logical" name="SELFENERGY"> F  </i>
   <i type="logical" name="LSPECTRAL"> F  </i>
   <i type="logical" name="LSPECTRALGW"> F  </i>
   <i type="logical" name="LSINGLES"> F  </i>
   <i type="logical" name="LFERMIGW"> F  </i>
   <i type="logical" name="ODDONLYGW"> F  </i>
   <i type="logical" name="EVENONLYGW"> F  </i>
   <i type="int" name="NKREDLFX">     1</i>
   <i type="int" name="NKREDLFY">     1</i>
   <i type="int" name="NKREDLFZ">     1</i>
   <i type="int" name="MAXMEM">  2800</i>
   <i type="int" name="TELESCOPE">     0</i>
   <i type="int" name="TAUPAR">     1</i>
   <i type="int" name="OMEGAPAR">    -1</i>
   <i name="LAMBDA">      1.00000000</i>
  </separator>
  <separator name="External order field" >
   <i name="OFIELD_KAPPA">      0.00000000</i>
   <v name="OFIELD_K">      0.00000000      0.00000000      0.00000000</v>
   <i name="OFIELD_Q6_NEAR">      0.00000000</i>
   <i name="OFIELD_Q6_FAR">      0.00000000</i>
   <i name="OFIELD_A">      0.00000000</i>
  </separator>
 </parameters>
 <atominfo>
  <atoms>      63 </atoms>
  <types>       3 </types>
  <array name="atoms" >
   <dimension dim="1">ion</dimension>
   <field type="string">element</field>
   <field type="int">atomtype</field>
   <set>
    <rc><c>Mg</c><c>   1</c></rc>
    <rc><c>Mg</c><c>   1</c></rc>
    <rc><c>Mg</c><c>   1</c></rc>
    <rc><c>Mg</c><c>   1</c></rc>
    <rc><c>Mg</c><c>   1</c></rc>
    <rc><c>Mg</c><c>   1</c></rc>
    <rc><c>Mg</c><c>   1</c></rc>
    <rc><c>Mg</c><c>   1</c></rc>
    <rc><c>Mg</c><c>   1</c></rc>
    <rc><c>Mg</c><c>   1</c></rc>
    <rc><c>Mg</c><c>   1</c></rc>
    <rc><c>Mg</c><c>   1</c></rc>
    <rc><c>Mg</c><c>   1</c></rc>
    <rc><c>Mg</c><c>   1</c></rc>
    <rc><c>Mg</c><c>   1</c></rc>
    <rc><c>Mg</c><c>   1</c></rc>
    <rc><c>Mg</c><c>   1</c></rc>
    <rc><c>Mg</c><c>   1</c></rc>
    <rc><c>Mg</c><c>   1</c></rc>
    <rc><c>Mg</c><c>   1</c></rc>
    <rc><c>Mg</c><c>   1</c></rc>
    <rc><c>Mg</c><c>   1</c></rc>
    <rc><c>Mg</c><c>   1</c></rc>
    <rc><c>Mg</c><c>   1</c></rc>
    <rc><c>Mg</c><c>   1</c></rc>
    <rc><c>Mg</c><c>   1</c></rc>
    <rc><c>Mg</c><c>   1</c></rc>
    <rc><c>Mg</c><c>   1</c></rc>
    <rc><c>Mg</c><c>   1</c></rc>
    <rc><c>Mg</c><c>   1</c></rc>
    <rc><c>Mg</c><c>   1</c></rc>
    <rc><c>Mg</c><c>   1</c></rc>
    <rc><c>Mg</c><c>   1</c></rc>
    <rc><c>Mg</c><c>   1</c></rc>
    <rc><c>Mg</c><c>   1</c></rc>
    <rc><c>Mg</c><c>   1</c></rc>
    <rc><c>Mg</c><c>   1</c></rc>
    <rc><c>Mg</c><c>   1</c></rc>
    <rc><c>Mg</c><c>   1</c></rc>
    <rc><c>Mg</c><c>   1</c></rc>
    <rc><c>Mg</c><c>   1</c></rc>
    <rc><c>Mg</c><c>   1</c></rc>
    <rc><c>Mg</c><c>   1</c></rc>
    <rc><c>Mg</c><c>   1</c></rc>
    <rc><c>Mg</c><c>   1</c></rc>
    <rc><c>O </c><c>   2</c></rc>
    <rc><c>O </c><c>   2</c></rc>
    <rc><c>O </c><c>   2</c></rc>
    <rc><c>O </c><c>   2</c></rc>
    <rc><c>O </c><c>   2</c></rc>
    <rc><c>O </c><c>   2</c></rc>
    <rc><c>H </c><c>   3</c></rc>
    <rc><c>H </c><c>   3</c></rc>
    <rc><c>H </c><c>   3</c></rc>
    <rc><c>H </c><c>   3</c></rc>
    <rc><c>H </c><c>   3</c></rc>
    <rc><c>H </c><c>   3</c></rc>
    <rc><c>H </c><c>   3</c></rc>
    <rc><c>H </c><c>   3</c></rc>
    <rc><c>H </c><c>   3</c></rc>
    <rc><c>H </c><c>   3</c></rc>
    <rc><c>H </c><c>   3</c></rc>
    <rc><c>H </c><c>   3</c></rc>
   </set>
  </array>
  <array name="atomtypes" >
   <dimension dim="1">type</dimension>
   <field type="int">atomspertype</field>
   <field type="string">element</field>
   <field>mass</field>
   <field>valence</field>
   <field type="string">pseudopotential</field>
   <set>
    <rc><c>  45</c><c>Mg</c><c>     24.30500000</c><c>      2.00000000</c><c>  PAW_PBE Mg 13Apr2007                  </c></rc>
    <rc><c>   6</c><c>O </c><c>     16.00000000</c><c>      6.00000000</c><c>  PAW_PBE O 08Apr2002                   </c></rc>
    <rc><c>  12</c><c>H </c><c>      1.00000000</c><c>      1.00000000</c><c>  PAW_PBE H 15Jun2001                   </c></rc>
   </set>
  </array>
 </atominfo>
 <structure name="initialpos" >
  <crystal>
   <varray name="basis" >
    <v>       9.55575275       0.00000000       0.00000000 </v>
    <v>      -4.77787638       8.27552464       0.00000000 </v>
    <v>       0.00000000       0.00000000      32.62509537 </v>
   </varray>
   <i name="volume">   2579.95558872 </i>
   <varray name="rec_basis" >
    <v>       0.10464900       0.06041913       0.00000000 </v>
    <v>       0.00000000       0.12083826       0.00000000 </v>
    <v>       0.00000000       0.00000000       0.03065125 </v>
   </varray>
  </crystal>
  <varray name="positions" >
   <v>       0.00000000       0.00000000       0.00000000 </v>
   <v>       0.00043423       0.00058371       0.15825199 </v>
   <v>       0.99817499       0.99968547       0.33104943 </v>
   <v>       0.00000001       0.33333336       0.00000000 </v>
   <v>       0.00091403       0.33409026       0.15746449 </v>
   <v>       0.99950936       0.33428042       0.31070609 </v>
   <v>       0.00000002       0.66666672       0.00000000 </v>
   <v>       0.00026132       0.66680708       0.15743242 </v>
   <v>       0.00149502       0.66963623       0.31428383 </v>
   <v>       0.33333334       0.00000000       0.00000000 </v>
   <v>       0.33427909       0.00073660       0.15747632 </v>
   <v>       0.33323454       0.00102990       0.31103050 </v>
   <v>       0.33333335       0.33333336       0.00000000 </v>
   <v>       0.33365361       0.33351801       0.15741769 </v>
   <v>       0.33513683       0.33597411       0.31418199 </v>
   <v>       0.33333336       0.66666672       0.00000000 </v>
   <v>       0.33379516       0.66725526       0.15825548 </v>
   <v>       0.33057904       0.66517742       0.33089441 </v>
   <v>       0.66666668       0.00000000       0.00000000 </v>
   <v>       0.66695523       0.00011719       0.15742793 </v>
   <v>       0.66802341       0.00244263       0.31447233 </v>
   <v>       0.66666668       0.33333336       0.00000000 </v>
   <v>       0.66714476       0.33397350       0.15825194 </v>
   <v>       0.66480031       0.33246796       0.33094812 </v>
   <v>       0.66666670       0.66666672       0.00000000 </v>
   <v>       0.66763731       0.66742847       0.15749544 </v>
   <v>       0.66650712       0.66804052       0.31110222 </v>
   <v>       0.11111113       0.22222222       0.07982145 </v>
   <v>       0.11183484       0.21988226       0.23613116 </v>
   <v>       0.11111114       0.55555561       0.07982145 </v>
   <v>       0.11496576       0.55947341       0.23613396 </v>
   <v>       0.11111116       0.88888894       0.07982145 </v>
   <v>       0.10962394       0.88940870       0.23544201 </v>
   <v>       0.44444450       0.22222222       0.07982145 </v>
   <v>       0.44826479       0.22589905       0.23613759 </v>
   <v>       0.44444450       0.55555561       0.07982145 </v>
   <v>       0.44297621       0.55607586       0.23545103 </v>
   <v>       0.44444451       0.88888894       0.07982145 </v>
   <v>       0.44508707       0.88647504       0.23621655 </v>
   <v>       0.77777779       0.22222222       0.07982145 </v>
   <v>       0.77599512       0.22245802       0.23540468 </v>
   <v>       0.77777781       0.55555561       0.07982145 </v>
   <v>       0.77828402       0.55310701       0.23626964 </v>
   <v>       0.77777784       0.88888894       0.07982145 </v>
   <v>       0.78171288       0.89278560       0.23623206 </v>
   <v>       0.99340110       0.99586225       0.39738255 </v>
   <v>       0.24945857       0.91629661       0.41456114 </v>
   <v>       0.92310284       0.25822200       0.41447940 </v>
   <v>       0.65885563       0.32627270       0.39731571 </v>
   <v>       0.58016872       0.58196479       0.41446483 </v>
   <v>       0.31926486       0.65417637       0.39747409 </v>
   <v>       0.98349795       0.08278448       0.41102031 </v>
   <v>       0.07828699       0.98324805       0.41123913 </v>
   <v>       0.35299180       0.01811915       0.41384088 </v>
   <v>       0.22271088       0.89109991       0.38482278 </v>
   <v>       0.02567900       0.36102246       0.41351734 </v>
   <v>       0.89581523       0.23180110       0.38482854 </v>
   <v>       0.64548197       0.41113079       0.41096610 </v>
   <v>       0.74611906       0.31749630       0.41111307 </v>
   <v>       0.68229966       0.68520648       0.41387339 </v>
   <v>       0.55409262       0.55687937       0.38468802 </v>
   <v>       0.30855309       0.74069688       0.41110326 </v>
   <v>       0.40531243       0.64318405       0.41125276 </v>
  </varray>
  <varray name="selective"  type="logical" >
   <v type="logical" >  F  F  F </v>
   <v type="logical" >  T  T  T </v>
   <v type="logical" >  T  T  T </v>
   <v type="logical" >  F  F  F </v>
   <v type="logical" >  T  T  T </v>
   <v type="logical" >  T  T  T </v>
   <v type="logical" >  F  F  F </v>
   <v type="logical" >  T  T  T </v>
   <v type="logical" >  T  T  T </v>
   <v type="logical" >  F  F  F </v>
   <v type="logical" >  T  T  T </v>
   <v type="logical" >  T  T  T </v>
   <v type="logical" >  F  F  F </v>
   <v type="logical" >  T  T  T </v>
   <v type="logical" >  T  T  T </v>
   <v type="logical" >  F  F  F </v>
   <v type="logical" >  T  T  T </v>
   <v type="logical" >  T  T  T </v>
   <v type="logical" >  F  F  F </v>
   <v type="logical" >  T  T  T </v>
   <v type="logical" >  T  T  T </v>
   <v type="logical" >  F  F  F </v>
   <v type="logical" >  T  T  T </v>
   <v type="logical" >  T  T  T </v>
   <v type="logical" >  F  F  F </v>
   <v type="logical" >  T  T  T </v>
   <v type="logical" >  T  T  T </v>
   <v type="logical" >  F  F  F </v>
   <v type="logical" >  T  T  T </v>
   <v type="logical" >  F  F  F </v>
   <v type="logical" >  T  T  T </v>
   <v type="logical" >  F  F  F </v>
   <v type="logical" >  T  T  T </v>
   <v type="logical" >  F  F  F </v>
   <v type="logical" >  T  T  T </v>
   <v type="logical" >  F  F  F </v>
   <v type="logical" >  T  T  T </v>
   <v type="logical" >  F  F  F </v>
   <v type="logical" >  T  T  T </v>
   <v type="logical" >  F  F  F </v>
   <v type="logical" >  T  T  T </v>
   <v type="logical" >  F  F  F </v>
   <v type="logical" >  T  T  T </v>
   <v type="logical" >  F  F  F </v>
   <v type="logical" >  T  T  T </v>
   <v type="logical" >  T  T  T </v>
   <v type="logical" >  T  T  T </v>
   <v type="logical" >  T  T  T </v>
   <v type="logical" >  T  T  T </v>
   <v type="logical" >  T  T  T </v>
   <v type="logical" >  T  T  T </v>
   <v type="logical" >  T  T  T </v>
   <v type="logical" >  T  T  T </v>
   <v type="logical" >  T  T  T </v>
   <v type="logical" >  T  T  T </v>
   <v type="logical" >  T  T  T </v>
   <v type="logical" >  T  T  T </v>
   <v type="logical" >  T  T  T </v>
   <v type="logical" >  T  T  T </v>
   <v type="logical" >  T  T  T </v>
   <v type="logical" >  T  T  T </v>
   <v type="logical" >  T  T  T </v>
   <v type="logical" >  T  T  T </v>
  </varray>
  <nose>
   <v>      -3.00000000       0.00000000       0.00010000       0.00010000 </v>
  </nose>
 </structure>
 <calculation>
  <scstep>
   <time name="diag">    2.52    2.52</time>
   <time name="diis">    2.08    2.08</time>
   <time name="orth">    0.86    0.86</time>
   <time name="total">   15.40   15.74</time>
   <dipole>
    <v name="dipole">      0.00000000       0.00000000      -0.00033584 </v>
    <i name="Tr[quadrupol]">  -1916.57937138 </i>
    <i name="Echarged">      0.00000000 </i>
    <i name="Edipol_quadrupol">      0.00000000 </i>
    <i name="Eion">      0.00000000 </i>
   </dipole>
   <energy>
    <i name="alphaZ">     63.16302143 </i>
    <i name="ewald">  12429.19950358 </i>
    <i name="hartreedc"> -15655.58518671 </i>
    <i name="XCdc">  -2051.21945199 </i>
    <i name="pawpsdc">   5135.15659847 </i>
    <i name="pawaedc">  -2719.01140655 </i>
    <i name="eentropy">      0.00000000 </i>
    <i name="bandstr">    212.72945917 </i>
    <i name="atom">   3827.98814510 </i>
    <i name="e_fr_energy">   1242.42068251 </i>
    <i name="e_wo_entrp">   1242.42068251 </i>
    <i name="e_0_energy">   1242.42068251 </i>
   </energy>
  </scstep>
  <scstep>
   <time name="diag">    2.45    2.47</time>
   <time name="diis">    2.11    2.11</time>
   <time name="orth">    0.98    0.98</time>
   <time name="total">    5.54    5.56</time>
   <dipole>
    <v name="dipole">      0.00000000       0.00000000      -0.00033584 </v>
    <i name="Tr[quadrupol]">  -1916.57937138 </i>
    <i name="Echarged">      0.00000000 </i>
    <i name="Edipol_quadrupol">      0.00000000 </i>
    <i name="Eion">      0.00000000 </i>
   </dipole>
   <energy>
    <i name="e_fr_energy">    545.15591279 </i>
    <i name="e_wo_entrp">    545.15591279 </i>
    <i name="e_0_energy">    545.15591279 </i>
   </energy>
  </scstep>
  <scstep>
   <time name="diag">    2.44    2.46</time>
   <time name="diis">    2.16    2.16</time>
   <time name="orth">    0.95    0.95</time>
   <time name="total">    5.55    5.57</time>
   <dipole>
    <v name="dipole">      0.00000000       0.00000000      -0.00033584 </v>
    <i name="Tr[quadrupol]">  -1916.57937138 </i>
    <i name="Echarged">      0.00000000 </i>
    <i name="Edipol_quadrupol">      0.00000000 </i>
    <i name="Eion">      0.00000000 </i>
   </dipole>
   <energy>
    <i name="e_fr_energy">    311.17500376 </i>
    <i name="e_wo_entrp">    311.17500376 </i>
    <i name="e_0_energy">    311.17500376 </i>
   </energy>
  </scstep>
  <scstep>
   <time name="diag">    2.49    2.51</time>
   <time name="diis">    2.09    2.09</time>
   <time name="orth">    0.91    0.92</time>
   <time name="total">    5.51    5.52</time>
   <dipole>
    <v name="dipole">      0.00000000       0.00000000      -0.00033584 </v>
    <i name="Tr[quadrupol]">  -1916.57937138 </i>
    <i name="Echarged">      0.00000000 </i>
    <i name="Edipol_quadrupol">      0.00000000 </i>
    <i name="Eion">      0.00000000 </i>
   </dipole>
   <energy>
    <i name="e_fr_energy">    135.16011305 </i>
    <i name="e_wo_entrp">    135.16011305 </i>
    <i name="e_0_energy">    135.16011305 </i>
   </energy>
  </scstep>
  <scstep>
   <time name="diag">    2.51    2.52</time>
   <time name="diis">    2.12    2.12</time>
   <time name="orth">    0.98    0.98</time>
   <time name="total">    5.61    5.63</time>
   <dipole>
    <v name="dipole">      0.00000000       0.00000000      -0.00033584 </v>
    <i name="Tr[quadrupol]">  -1916.57937138 </i>
    <i name="Echarged">      0.00000000 </i>
    <i name="Edipol_quadrupol">      0.00000000 </i>
    <i name="Eion">      0.00000000 </i>
   </dipole>
   <energy>
    <i name="e_fr_energy">     17.84809486 </i>
    <i name="e_wo_entrp">     17.84809486 </i>
    <i name="e_0_energy">     17.84809486 </i>
   </energy>
  </scstep>
  <scstep>
   <time name="diag">    2.50    2.52</time>
   <time name="diis">    2.11    2.11</time>
   <time name="orth">    0.90    0.90</time>
   <time name="total">    5.52    5.54</time>
   <dipole>
    <v name="dipole">      0.00000000       0.00000000      -0.00033584 </v>
    <i name="Tr[quadrupol]">  -1916.57937138 </i>
    <i name="Echarged">      0.00000000 </i>
    <i name="Edipol_quadrupol">      0.00000000 </i>
    <i name="Eion">      0.00000000 </i>
   </dipole>
   <energy>
    <i name="e_fr_energy">    -44.42559056 </i>
    <i name="e_wo_entrp">    -44.42559056 </i>
    <i name="e_0_energy">    -44.42559056 </i>
   </energy>
  </scstep>
  <scstep>
   <time name="diag">    2.48    2.50</time>
   <time name="diis">    2.10    2.10</time>
   <time name="orth">    0.99    0.99</time>
   <time name="total">    5.58    5.60</time>
   <dipole>
    <v name="dipole">      0.00000000       0.00000000      -0.00033584 </v>
    <i name="Tr[quadrupol]">  -1916.57937138 </i>
    <i name="Echarged">      0.00000000 </i>
    <i name="Edipol_quadrupol">      0.00000000 </i>
    <i name="Eion">      0.00000000 </i>
   </dipole>
   <energy>
    <i name="e_fr_energy">    -69.51903344 </i>
    <i name="e_wo_entrp">    -69.51903344 </i>
    <i name="e_0_energy">    -69.51903344 </i>
   </energy>
  </scstep>
  <scstep>
   <time name="diag">    2.48    2.51</time>
   <time name="diis">    2.12    2.12</time>
   <time name="orth">    0.90    0.90</time>
   <time name="total">    5.51    5.53</time>
   <dipole>
    <v name="dipole">      0.00000000       0.00000000      -0.00033584 </v>
    <i name="Tr[quadrupol]">  -1916.57937138 </i>
    <i name="Echarged">      0.00000000 </i>
    <i name="Edipol_quadrupol">      0.00000000 </i>
    <i name="Eion">      0.00000000 </i>
   </dipole>
   <energy>
    <i name="e_fr_energy">    -75.86577562 </i>
    <i name="e_wo_entrp">    -75.86577562 </i>
    <i name="e_0_energy">    -75.86577562 </i>
   </energy>
  </scstep>
  <scstep>
   <time name="diag">    2.46    2.48</time>
   <time name="diis">    4.89    4.89</time>
   <time name="orth">    0.92    0.92</time>
   <time name="total">    8.27    8.29</time>
   <dipole>
    <v name="dipole">      0.00000000       0.00000000      -0.00033584 </v>
    <i name="Tr[quadrupol]">  -1916.57937138 </i>
    <i name="Echarged">      0.00000000 </i>
    <i name="Edipol_quadrupol">      0.00000000 </i>
    <i name="Eion">      0.00000000 </i>
   </dipole>
   <energy>
    <i name="e_fr_energy">    -78.05683044 </i>
    <i name="e_wo_entrp">    -78.05683044 </i>
    <i name="e_0_energy">    -78.05683044 </i>
   </energy>
  </scstep>
  <scstep>
   <time name="diag">    2.48    2.50</time>
   <time name="diis">    5.78    5.78</time>
   <time name="orth">    0.93    0.93</time>
   <time name="total">    9.19    9.21</time>
   <dipole>
    <v name="dipole">      0.00000000       0.00000000      -0.00033584 </v>
    <i name="Tr[quadrupol]">  -1916.57937138 </i>
    <i name="Echarged">      0.00000000 </i>
    <i name="Edipol_quadrupol">      0.00000000 </i>
    <i name="Eion">      0.00000000 </i>
   </dipole>
   <energy>
    <i name="e_fr_energy">    -78.37903571 </i>
    <i name="e_wo_entrp">    -78.37903571 </i>
    <i name="e_0_energy">    -78.37903571 </i>
   </energy>
  </scstep>
  <scstep>
   <time name="diag">    2.50    2.52</time>
   <time name="diis">    5.67    5.67</time>
   <time name="orth">    0.98    0.98</time>
   <time name="total">    9.16    9.18</time>
   <dipole>
    <v name="dipole">      0.00000000       0.00000000      -0.00033584 </v>
    <i name="Tr[quadrupol]">  -1916.57937138 </i>
    <i name="Echarged">      0.00000000 </i>
    <i name="Edipol_quadrupol">      0.00000000 </i>
    <i name="Eion">      0.00000000 </i>
   </dipole>
   <energy>
    <i name="e_fr_energy">    -78.38204070 </i>
    <i name="e_wo_entrp">    -78.38204070 </i>
    <i name="e_0_energy">    -78.38204070 </i>
   </energy>
  </scstep>
  <scstep>
   <time name="diag">    2.47    2.49</time>
   <time name="diis">    6.02    6.02</time>
   <time name="orth">    0.99    0.99</time>
   <time name="total">    9.95    9.97</time>
   <dipole>
    <v name="dipole">      0.00000000       0.00000000      -0.00033584 </v>
    <i name="Tr[quadrupol]">  -1916.57937138 </i>
    <i name="Echarged">      0.00000000 </i>
    <i name="Edipol_quadrupol">      0.00000000 </i>
    <i name="Eion">      0.00000000 </i>
   </dipole>
   <energy>
    <i name="e_fr_energy">    -78.38525784 </i>
    <i name="e_wo_entrp">    -78.38525784 </i>
    <i name="e_0_energy">    -78.38525784 </i>
   </energy>
  </scstep>
  <scstep>
   <time name="diag">    2.47    2.47</time>
   <time name="diis">    4.78    4.78</time>
   <time name="orth">    0.91    0.91</time>
   <time name="total">   17.60   17.62</time>
   <dipole>
    <v name="dipole">      0.00000000       0.00000000       0.21225721 </v>
    <i name="Tr[quadrupol]">  -1927.89646329 </i>
    <i name="Echarged">      0.00000000 </i>
    <i name="Edipol_quadrupol">      0.00000000 </i>
    <i name="Eion">      0.00000000 </i>
   </dipole>
   <energy>
    <i name="e_fr_energy">    -68.39558504 </i>
    <i name="e_wo_entrp">    -68.39558504 </i>
    <i name="e_0_energy">    -68.39558504 </i>
   </energy>
  </scstep>
  <scstep>
   <time name="diag">    2.44    2.44</time>
   <time name="diis">    5.22    5.22</time>
   <time name="orth">    0.99    0.99</time>
   <time name="total">   18.16   18.18</time>
   <dipole>
    <v name="dipole">      0.00000000       0.00000000      -1.02715337 </v>
    <i name="Tr[quadrupol]">  -1919.95919191 </i>
    <i name="Echarged">      0.00000000 </i>
    <i name="Edipol_quadrupol">      0.00000000 </i>
    <i name="Eion">      0.00000000 </i>
   </dipole>
   <energy>
    <i name="e_fr_energy">    -73.87445041 </i>
    <i name="e_wo_entrp">    -73.87445041 </i>
    <i name="e_0_energy">    -73.87445041 </i>
   </energy>
  </scstep>
  <scstep>
   <time name="diag">    2.39    2.39</time>
   <time name="diis">    4.85    4.85</time>
   <time name="orth">    0.99    0.99</time>
   <time name="total">   17.77   17.79</time>
   <dipole>
    <v name="dipole">      0.00000000       0.00000000       0.24984301 </v>
    <i name="Tr[quadrupol]">  -1928.72254738 </i>
    <i name="Echarged">      0.00000000 </i>
    <i name="Edipol_quadrupol">      0.00000000 </i>
    <i name="Eion">      0.00000000 </i>
   </dipole>
   <energy>
    <i name="e_fr_energy">    -69.05496410 </i>
    <i name="e_wo_entrp">    -69.05496410 </i>
    <i name="e_0_energy">    -69.05496410 </i>
   </energy>
  </scstep>
  <scstep>
   <time name="diag">    2.48    2.48</time>
   <time name="diis">    4.91    4.91</time>
   <time name="orth">    0.93    0.93</time>
   <time name="total">   17.73   17.75</time>
   <dipole>
    <v name="dipole">      0.00000000       0.00000000      -0.17643689 </v>
    <i name="Tr[quadrupol]">  -1930.93399926 </i>
    <i name="Echarged">      0.00000000 </i>
    <i name="Edipol_quadrupol">      0.00000000 </i>
    <i name="Eion">      0.00000000 </i>
   </dipole>
   <energy>
    <i name="e_fr_energy">    -67.93814591 </i>
    <i name="e_wo_entrp">    -67.93814591 </i>
    <i name="e_0_energy">    -67.93814591 </i>
   </energy>
  </scstep>
  <scstep>
   <time name="diag">    2.48    2.48</time>
   <time name="diis">    4.41    4.41</time>
   <time name="orth">    0.93    0.93</time>
   <time name="total">   17.37   17.40</time>
   <dipole>
    <v name="dipole">      0.00000000       0.00000000      -0.16651778 </v>
    <i name="Tr[quadrupol]">  -1931.29969636 </i>
    <i name="Echarged">      0.00000000 </i>
    <i name="Edipol_quadrupol">      0.00000000 </i>
    <i name="Eion">      0.00000000 </i>
   </dipole>
   <energy>
    <i name="e_fr_energy">    -67.92360293 </i>
    <i name="e_wo_entrp">    -67.92360293 </i>
    <i name="e_0_energy">    -67.92360293 </i>
   </energy>
  </scstep>
  <scstep>
   <time name="diag">    2.54    2.54</time>
   <time name="diis">    5.57    5.57</time>
   <time name="orth">    1.00    1.00</time>
   <time name="total">   18.75   18.77</time>
   <dipole>
    <v name="dipole">      0.00000000       0.00000000      -0.40399972 </v>
    <i name="Tr[quadrupol]">  -1931.10172036 </i>
    <i name="Echarged">      0.00000000 </i>
    <i name="Edipol_quadrupol">      0.00000000 </i>
    <i name="Eion">      0.00000000 </i>
   </dipole>
   <energy>
    <i name="e_fr_energy">    -67.92024404 </i>
    <i name="e_wo_entrp">    -67.92024404 </i>
    <i name="e_0_energy">    -67.92024404 </i>
   </energy>
  </scstep>
  <scstep>
   <time name="diag">    2.49    2.49</time>
   <time name="diis">    4.77    4.77</time>
   <time name="orth">    0.89    0.89</time>
   <time name="total">   18.53   18.55</time>
   <dipole>
    <v name="dipole">      0.00000000       0.00000000      -0.41848983 </v>
    <i name="Tr[quadrupol]">  -1931.86252621 </i>
    <i name="Echarged">      0.00000000 </i>
    <i name="Edipol_quadrupol">      0.00000000 </i>
    <i name="Eion">      0.00000000 </i>
   </dipole>
   <energy>
    <i name="e_fr_energy">    -67.89654349 </i>
    <i name="e_wo_entrp">    -67.89654349 </i>
    <i name="e_0_energy">    -67.89654349 </i>
   </energy>
  </scstep>
  <scstep>
   <time name="diag">    2.48    2.48</time>
   <time name="diis">    5.18    5.18</time>
   <time name="orth">    0.99    0.99</time>
   <time name="total">   18.19   18.21</time>
   <dipole>
    <v name="dipole">      0.00000000       0.00000000      -0.40607114 </v>
    <i name="Tr[quadrupol]">  -1932.29117642 </i>
    <i name="Echarged">      0.00000000 </i>
    <i name="Edipol_quadrupol">      0.00000000 </i>
    <i name="Eion">      0.00000000 </i>
   </dipole>
   <energy>
    <i name="e_fr_energy">    -67.88336123 </i>
    <i name="e_wo_entrp">    -67.88336123 </i>
    <i name="e_0_energy">    -67.88336123 </i>
   </energy>
  </scstep>
  <scstep>
   <time name="diag">    2.45    2.45</time>
   <time name="diis">    5.27    5.27</time>
   <time name="orth">    0.93    0.93</time>
   <time name="total">   18.21   18.23</time>
   <dipole>
    <v name="dipole">      0.00000000       0.00000000      -0.39254740 </v>
    <i name="Tr[quadrupol]">  -1932.94338212 </i>
    <i name="Echarged">      0.00000000 </i>
    <i name="Edipol_quadrupol">      0.00000000 </i>
    <i name="Eion">      0.00000000 </i>
   </dipole>
   <energy>
    <i name="e_fr_energy">    -67.87965346 </i>
    <i name="e_wo_entrp">    -67.87965346 </i>
    <i name="e_0_energy">    -67.87965346 </i>
   </energy>
  </scstep>
  <scstep>
   <time name="diag">    2.63    2.63</time>
   <time name="diis">    4.99    4.99</time>
   <time name="orth">    1.01    1.01</time>
   <time name="total">   18.19   18.21</time>
   <dipole>
    <v name="dipole">      0.00000000       0.00000000      -0.39424359 </v>
    <i name="Tr[quadrupol]">  -1933.13996016 </i>
    <i name="Echarged">      0.00000000 </i>
    <i name="Edipol_quadrupol">      0.00000000 </i>
    <i name="Eion">      0.00000000 </i>
   </dipole>
   <energy>
    <i name="e_fr_energy">    -67.87437210 </i>
    <i name="e_wo_entrp">    -67.87437210 </i>
    <i name="e_0_energy">    -67.87437210 </i>
   </energy>
  </scstep>
  <scstep>
   <time name="diag">    2.63    2.63</time>
   <time name="diis">    4.96    4.96</time>
   <time name="orth">    1.03    1.03</time>
   <time name="total">   18.48   18.50</time>
   <dipole>
    <v name="dipole">      0.00000000       0.00000000      -0.38372674 </v>
    <i name="Tr[quadrupol]">  -1933.43218935 </i>
    <i name="Echarged">      0.00000000 </i>
    <i name="Edipol_quadrupol">      0.00000000 </i>
    <i name="Eion">      0.00000000 </i>
   </dipole>
   <energy>
    <i name="e_fr_energy">    -67.87130593 </i>
    <i name="e_wo_entrp">    -67.87130593 </i>
    <i name="e_0_energy">    -67.87130593 </i>
   </energy>
  </scstep>
  <scstep>
   <time name="diag">    2.46    2.46</time>
   <time name="diis">    4.04    4.04</time>
   <time name="orth">    0.95    0.95</time>
   <time name="total">   16.97   17.00</time>
   <dipole>
    <v name="dipole">      0.00000000       0.00000000      -0.37490032 </v>
    <i name="Tr[quadrupol]">  -1933.57804947 </i>
    <i name="Echarged">      0.00000000 </i>
    <i name="Edipol_quadrupol">      0.00000000 </i>
    <i name="Eion">      0.00000000 </i>
   </dipole>
   <energy>
    <i name="e_fr_energy">    -67.87166145 </i>
    <i name="e_wo_entrp">    -67.87166145 </i>
    <i name="e_0_energy">    -67.87166145 </i>
   </energy>
  </scstep>
  <scstep>
   <time name="diag">    1.43    1.44</time>
   <time name="diis">    2.90    2.90</time>
   <time name="orth">    0.73    0.73</time>
   <time name="total">   14.52   14.54</time>
   <dipole>
    <v name="dipole">      0.00000000       0.00000000      -0.36964406 </v>
    <i name="Tr[quadrupol]">  -1933.68482563 </i>
    <i name="Echarged">      0.00000000 </i>
    <i name="Edipol_quadrupol">      0.00000000 </i>
    <i name="Eion">      0.00000000 </i>
   </dipole>
   <energy>
    <i name="e_fr_energy">    -67.87223173 </i>
    <i name="e_wo_entrp">    -67.87223173 </i>
    <i name="e_0_energy">    -67.87223173 </i>
   </energy>
  </scstep>
  <scstep>
   <time name="diag">    2.39    2.39</time>
   <time name="diis">    3.61    3.61</time>
   <time name="orth">    0.84    0.84</time>
   <time name="total">   15.65   15.67</time>
   <dipole>
    <v name="dipole">      0.00000000       0.00000000      -0.36419998 </v>
    <i name="Tr[quadrupol]">  -1933.76711590 </i>
    <i name="Echarged">      0.00000000 </i>
    <i name="Edipol_quadrupol">      0.00000000 </i>
    <i name="Eion">      0.00000000 </i>
   </dipole>
   <energy>
    <i name="e_fr_energy">    -67.87219868 </i>
    <i name="e_wo_entrp">    -67.87219868 </i>
    <i name="e_0_energy">    -67.87219868 </i>
   </energy>
  </scstep>
  <scstep>
   <time name="diag">    2.43    2.43</time>
   <time name="diis">    3.44    3.44</time>
   <time name="orth">    1.00    1.00</time>
   <time name="total">   16.29   16.31</time>
   <dipole>
    <v name="dipole">      0.00000000       0.00000000      -0.36161057 </v>
    <i name="Tr[quadrupol]">  -1933.81939254 </i>
    <i name="Echarged">      0.00000000 </i>
    <i name="Edipol_quadrupol">      0.00000000 </i>
    <i name="Eion">      0.00000000 </i>
   </dipole>
   <energy>
    <i name="e_fr_energy">    -67.87206609 </i>
    <i name="e_wo_entrp">    -67.87206609 </i>
    <i name="e_0_energy">    -67.87206609 </i>
   </energy>
  </scstep>
  <scstep>
   <time name="diag">    2.26    2.26</time>
   <time name="diis">    2.27    2.27</time>
   <time name="orth">    0.45    0.45</time>
   <time name="total">   14.17   14.19</time>
   <dipole>
    <v name="dipole">      0.00000000       0.00000000      -0.36014893 </v>
    <i name="Tr[quadrupol]">  -1933.82342751 </i>
    <i name="Echarged">      0.00000000 </i>
    <i name="Edipol_quadrupol">      0.00000000 </i>
    <i name="Eion">      0.00000000 </i>
   </dipole>
   <energy>
    <i name="e_fr_energy">    -67.87205465 </i>
    <i name="e_wo_entrp">    -67.87205465 </i>
    <i name="e_0_energy">    -67.87205465 </i>
   </energy>
  </scstep>
  <scstep>
   <time name="diag">    1.56    1.56</time>
   <time name="diis">    2.29    2.29</time>
   <time name="orth">    0.58    0.58</time>
   <time name="total">   11.58   11.60</time>
   <dipole>
    <v name="dipole">      0.00000000       0.00000000      -0.35930750 </v>
    <i name="Tr[quadrupol]">  -1933.82337508 </i>
    <i name="Echarged">      0.00000000 </i>
    <i name="Edipol_quadrupol">      0.00000000 </i>
    <i name="Eion">      0.00000000 </i>
   </dipole>
   <energy>
    <i name="e_fr_energy">    -67.87208495 </i>
    <i name="e_wo_entrp">    -67.87208495 </i>
    <i name="e_0_energy">    -67.87208495 </i>
   </energy>
  </scstep>
  <scstep>
   <time name="diag">    1.53    1.53</time>
   <time name="diis">    2.37    2.37</time>
   <time name="orth">    0.49    0.49</time>
   <time name="total">   11.81   11.83</time>
   <dipole>
    <v name="dipole">      0.00000000       0.00000000      -0.35939575 </v>
    <i name="Tr[quadrupol]">  -1933.77446455 </i>
    <i name="Echarged">      0.00000000 </i>
    <i name="Edipol_quadrupol">      0.00000000 </i>
    <i name="Eion">      0.00000000 </i>
   </dipole>
   <energy>
    <i name="e_fr_energy">    -67.87212935 </i>
    <i name="e_wo_entrp">    -67.87212935 </i>
    <i name="e_0_energy">    -67.87212935 </i>
   </energy>
  </scstep>
  <scstep>
   <time name="diag">    1.80    1.81</time>
   <time name="diis">    2.56    2.56</time>
   <time name="orth">    0.94    0.94</time>
   <time name="total">   12.53   12.55</time>
   <dipole>
    <v name="dipole">      0.00000000       0.00000000      -0.35951836 </v>
    <i name="Tr[quadrupol]">  -1934.14803486 </i>
    <i name="Echarged">      0.00000000 </i>
    <i name="Edipol_quadrupol">      0.00000000 </i>
    <i name="Eion">      0.00000000 </i>
   </dipole>
   <energy>
    <i name="e_fr_energy">    -67.87213456 </i>
    <i name="e_wo_entrp">    -67.87213456 </i>
    <i name="e_0_energy">    -67.87213456 </i>
   </energy>
  </scstep>
  <scstep>
   <time name="diag">    2.41    2.41</time>
   <time name="diis">    2.67    2.67</time>
   <time name="orth">    0.91    0.91</time>
   <time name="total">   15.35   15.38</time>
   <dipole>
    <v name="dipole">      0.00000000       0.00000000      -0.36022194 </v>
    <i name="Tr[quadrupol]">  -1934.19330553 </i>
    <i name="Echarged">      0.00000000 </i>
    <i name="Edipol_quadrupol">      0.00000000 </i>
    <i name="Eion">      0.00000000 </i>
   </dipole>
   <energy>
    <i name="e_fr_energy">    -67.87215774 </i>
    <i name="e_wo_entrp">    -67.87215774 </i>
    <i name="e_0_energy">    -67.87215774 </i>
   </energy>
  </scstep>
  <scstep>
   <time name="diag">    2.42    2.42</time>
   <time name="diis">    2.70    2.70</time>
   <time name="orth">    0.86    0.86</time>
   <time name="total">   15.33   15.35</time>
   <dipole>
    <v name="dipole">      0.00000000       0.00000000      -0.36036560 </v>
    <i name="Tr[quadrupol]">  -1934.19451820 </i>
    <i name="Echarged">      0.00000000 </i>
    <i name="Edipol_quadrupol">      0.00000000 </i>
    <i name="Eion">      0.00000000 </i>
   </dipole>
   <energy>
    <i name="e_fr_energy">    -67.87215231 </i>
    <i name="e_wo_entrp">    -67.87215231 </i>
    <i name="e_0_energy">    -67.87215231 </i>
   </energy>
  </scstep>
  <scstep>
   <time name="diag">    1.60    1.60</time>
   <time name="diis">    2.17    2.17</time>
   <time name="orth">    0.50    0.50</time>
   <time name="total">   13.48   13.50</time>
   <dipole>
    <v name="dipole">      0.00000000       0.00000000      -0.36057454 </v>
    <i name="Tr[quadrupol]">  -1934.19556699 </i>
    <i name="Echarged">      0.00000000 </i>
    <i name="Edipol_quadrupol">      0.00000000 </i>
    <i name="Eion">      0.00000000 </i>
   </dipole>
   <energy>
    <i name="e_fr_energy">    -67.87213276 </i>
    <i name="e_wo_entrp">    -67.87213276 </i>
    <i name="e_0_energy">    -67.87213276 </i>
   </energy>
  </scstep>
  <scstep>
   <time name="diag">    1.54    1.54</time>
   <time name="diis">    2.57    2.57</time>
   <time name="orth">    0.54    0.54</time>
   <time name="total">   11.73   11.75</time>
   <dipole>
    <v name="dipole">      0.00000000       0.00000000      -0.36084369 </v>
    <i name="Tr[quadrupol]">  -1934.24352802 </i>
    <i name="Echarged">      0.00000000 </i>
    <i name="Edipol_quadrupol">      0.00000000 </i>
    <i name="Eion">      0.00000000 </i>
   </dipole>
   <energy>
    <i name="e_fr_energy">    -67.87211214 </i>
    <i name="e_wo_entrp">    -67.87211214 </i>
    <i name="e_0_energy">    -67.87211214 </i>
   </energy>
  </scstep>
  <scstep>
   <time name="diag">    1.49    1.49</time>
   <time name="diis">    2.63    2.63</time>
   <time name="orth">    0.53    0.53</time>
   <time name="total">   11.81   11.83</time>
   <dipole>
    <v name="dipole">      0.00000000       0.00000000      -0.36094946 </v>
    <i name="Tr[quadrupol]">  -1934.38522122 </i>
    <i name="Echarged">      0.00000000 </i>
    <i name="Edipol_quadrupol">      0.00000000 </i>
    <i name="Eion">      0.00000000 </i>
   </dipole>
   <energy>
    <i name="e_fr_energy">    -67.87208558 </i>
    <i name="e_wo_entrp">    -67.87208558 </i>
    <i name="e_0_energy">    -67.87208558 </i>
   </energy>
  </scstep>
  <scstep>
   <time name="diag">    2.37    2.37</time>
   <time name="diis">    3.43    3.43</time>
   <time name="orth">    0.99    0.99</time>
   <time name="total">   13.96   13.98</time>
   <dipole>
    <v name="dipole">      0.00000000       0.00000000      -0.36094470 </v>
    <i name="Tr[quadrupol]">  -1934.47943341 </i>
    <i name="Echarged">      0.00000000 </i>
    <i name="Edipol_quadrupol">      0.00000000 </i>
    <i name="Eion">      0.00000000 </i>
   </dipole>
   <energy>
    <i name="alphaZ">     65.71708355 </i>
    <i name="ewald">  12429.19950358 </i>
    <i name="hartreedc"> -15881.91635380 </i>
    <i name="XCdc">  -2035.48208772 </i>
    <i name="pawpsdc">   5986.92331888 </i>
    <i name="pawaedc">  -3573.19976018 </i>
    <i name="eentropy">      0.00000000 </i>
    <i name="bandstr">   -887.10193135 </i>
    <i name="atom">   3827.98814510 </i>
    <i name="e_fr_energy">    -67.87208193 </i>
    <i name="e_wo_entrp">    -67.87208193 </i>
    <i name="e_0_energy">    -67.87208193 </i>
   </energy>
  </scstep>
  <structure>
   <crystal>
    <varray name="basis" >
     <v>       9.55575275       0.00000000       0.00000000 </v>
     <v>      -4.77787638       8.27552464       0.00000000 </v>
     <v>       0.00000000       0.00000000      32.62509537 </v>
    </varray>
    <i name="volume">   2579.95558872 </i>
    <varray name="rec_basis" >
     <v>       0.10464900       0.06041913       0.00000000 </v>
     <v>       0.00000000       0.12083826       0.00000000 </v>
     <v>       0.00000000       0.00000000       0.03065125 </v>
    </varray>
   </crystal>
   <varray name="positions" >
    <v>       0.00000000       0.00000000       0.00000000 </v>
    <v>       0.00043423       0.00058371       0.15825199 </v>
    <v>       0.99817499       0.99968547       0.33104943 </v>
    <v>       0.00000001       0.33333336       0.00000000 </v>
    <v>       0.00091403       0.33409026       0.15746449 </v>
    <v>       0.99950936       0.33428042       0.31070609 </v>
    <v>       0.00000002       0.66666672       0.00000000 </v>
    <v>       0.00026132       0.66680708       0.15743242 </v>
    <v>       0.00149502       0.66963623       0.31428383 </v>
    <v>       0.33333334       0.00000000       0.00000000 </v>
    <v>       0.33427909       0.00073660       0.15747632 </v>
    <v>       0.33323454       0.00102990       0.31103050 </v>
    <v>       0.33333335       0.33333336       0.00000000 </v>
    <v>       0.33365361       0.33351801       0.15741769 </v>
    <v>       0.33513683       0.33597411       0.31418199 </v>
    <v>       0.33333336       0.66666672       0.00000000 </v>
    <v>       0.33379516       0.66725526       0.15825548 </v>
    <v>       0.33057904       0.66517742       0.33089441 </v>
    <v>       0.66666668       0.00000000       0.00000000 </v>
    <v>       0.66695523       0.00011719       0.15742793 </v>
    <v>       0.66802341       0.00244263       0.31447233 </v>
    <v>       0.66666668       0.33333336       0.00000000 </v>
    <v>       0.66714476       0.33397350       0.15825194 </v>
    <v>       0.66480031       0.33246796       0.33094812 </v>
    <v>       0.66666670       0.66666672       0.00000000 </v>
    <v>       0.66763731       0.66742847       0.15749544 </v>
    <v>       0.66650712       0.66804052       0.31110222 </v>
    <v>       0.11111113       0.22222222       0.07982145 </v>
    <v>       0.11183484       0.21988226       0.23613116 </v>
    <v>       0.11111114       0.55555561       0.07982145 </v>
    <v>       0.11496576       0.55947341       0.23613396 </v>
    <v>       0.11111116       0.88888894       0.07982145 </v>
    <v>       0.10962394       0.88940870       0.23544201 </v>
    <v>       0.44444450       0.22222222       0.07982145 </v>
    <v>       0.44826479       0.22589905       0.23613759 </v>
    <v>       0.44444450       0.55555561       0.07982145 </v>
    <v>       0.44297621       0.55607586       0.23545103 </v>
    <v>       0.44444451       0.88888894       0.07982145 </v>
    <v>       0.44508707       0.88647504       0.23621655 </v>
    <v>       0.77777779       0.22222222       0.07982145 </v>
    <v>       0.77599512       0.22245802       0.23540468 </v>
    <v>       0.77777781       0.55555561       0.07982145 </v>
    <v>       0.77828402       0.55310701       0.23626964 </v>
    <v>       0.77777784       0.88888894       0.07982145 </v>
    <v>       0.78171288       0.89278560       0.23623206 </v>
    <v>       0.99340110       0.99586225       0.39738255 </v>
    <v>       0.24945857       0.91629661       0.41456114 </v>
    <v>       0.92310284       0.25822200       0.41447940 </v>
    <v>       0.65885563       0.32627270       0.39731571 </v>
    <v>       0.58016872       0.58196479       0.41446483 </v>
    <v>       0.31926486       0.65417637       0.39747409 </v>
    <v>       0.98349795       0.08278448       0.41102031 </v>
    <v>       0.07828699       0.98324805       0.41123913 </v>
    <v>       0.35299180       0.01811915       0.41384088 </v>
    <v>       0.22271088       0.89109991       0.38482278 </v>
    <v>       0.02567900       0.36102246       0.41351734 </v>
    <v>       0.89581523       0.23180110       0.38482854 </v>
    <v>       0.64548197       0.41113079       0.41096610 </v>
    <v>       0.74611906       0.31749630       0.41111307 </v>
    <v>       0.68229966       0.68520648       0.41387339 </v>
    <v>       0.55409262       0.55687937       0.38468802 </v>
    <v>       0.30855309       0.74069688       0.41110326 </v>
    <v>       0.40531243       0.64318405       0.41125276 </v>
   </varray>
  </structure>
  <varray name="forces" >
   <v>       0.00798339      -0.00269580       0.01184240 </v>
   <v>      -0.01144410       0.01166356       0.00463675 </v>
   <v>       0.00417315      -0.00101093      -0.02379097 </v>
   <v>      -0.02365582      -0.01040614      -0.02523022 </v>
   <v>      -0.00093296      -0.00200063       0.00239644 </v>
   <v>      -0.02605546      -0.01863016       0.01605770 </v>
   <v>       0.00381632       0.02248818      -0.01562007 </v>
   <v>       0.00289729      -0.00118187      -0.00046630 </v>
   <v>       0.00634984       0.02540305       0.00902354 </v>
   <v>      -0.02689799      -0.00598979      -0.01552894 </v>
   <v>      -0.00284243       0.00223289      -0.00117686 </v>
   <v>      -0.02390194      -0.01184126       0.00539604 </v>
   <v>      -0.00274002       0.02899704      -0.01892424 </v>
   <v>      -0.00488243       0.00595754       0.00142566 </v>
   <v>      -0.00237901       0.03434216       0.00860789 </v>
   <v>       0.00760829      -0.01789957       0.01607665 </v>
   <v>      -0.01000332      -0.00272651       0.00343282 </v>
   <v>       0.00824776      -0.01711736      -0.02482493 </v>
   <v>       0.00841180       0.03820991      -0.01569214 </v>
   <v>       0.00544011       0.01260856       0.00064390 </v>
   <v>       0.01049227       0.04260530       0.00467804 </v>
   <v>       0.01599272      -0.00746300       0.01025478 </v>
   <v>      -0.00318308       0.00485575       0.00558328 </v>
   <v>       0.01790203      -0.00891401      -0.02578012 </v>
   <v>      -0.02126722      -0.01222447      -0.01474634 </v>
   <v>      -0.00073028      -0.00286268      -0.00225989 </v>
   <v>      -0.02478768      -0.01541424       0.00583349 </v>
   <v>       0.01310916      -0.03783533       0.02314994 </v>
   <v>      -0.00025663      -0.03299419      -0.00562513 </v>
   <v>       0.03356039       0.01673307       0.02454821 </v>
   <v>       0.02583029       0.01083236      -0.00558497 </v>
   <v>      -0.03287431       0.00675211      -0.00855490 </v>
   <v>      -0.02085615       0.00217855       0.00409167 </v>
   <v>       0.03297100       0.02430995       0.02431772 </v>
   <v>       0.02489259       0.02088887      -0.00193666 </v>
   <v>      -0.03514425      -0.00132938      -0.00835927 </v>
   <v>      -0.02500203      -0.00718662       0.00422856 </v>
   <v>       0.01817468      -0.03797756       0.02207403 </v>
   <v>       0.00736698      -0.03505449      -0.00248656 </v>
   <v>      -0.02595032       0.00576730      -0.00825292 </v>
   <v>      -0.00988210       0.00312955       0.00655014 </v>
   <v>       0.02119838      -0.04324226       0.02239517 </v>
   <v>       0.01352682      -0.04190470      -0.00422385 </v>
   <v>       0.03462997       0.03110187       0.02399141 </v>
   <v>       0.02811963       0.03194882      -0.00197787 </v>
   <v>       0.00028200      -0.00908461       0.00683950 </v>
   <v>       0.00615881       0.00574108       0.02558998 </v>
   <v>      -0.00160711      -0.00033135       0.04576408 </v>
   <v>      -0.01147712      -0.00070649       0.00580512 </v>
   <v>       0.00416445       0.00987511       0.02588101 </v>
   <v>      -0.00109188       0.00602399       0.00823117 </v>
   <v>      -0.00509647       0.00741417      -0.00822505 </v>
   <v>       0.00165005      -0.00025443      -0.00753181 </v>
   <v>       0.00050559       0.00180515      -0.00459561 </v>
   <v>      -0.00891156      -0.01032541      -0.02409970 </v>
   <v>       0.00287876       0.00432554      -0.01022124 </v>
   <v>      -0.00559015      -0.00896491      -0.03428377 </v>
   <v>      -0.00177391       0.00077844      -0.00588772 </v>
   <v>       0.00901436      -0.00136899      -0.00976643 </v>
   <v>       0.00197748       0.00184577      -0.00454167 </v>
   <v>      -0.00843758      -0.01334002      -0.02600150 </v>
   <v>      -0.00127155       0.00052775      -0.00526631 </v>
   <v>       0.00160052      -0.00106423      -0.00788312 </v>
  </varray>
  <varray name="stress" >
   <v>      -4.63187005      -1.10906853      -0.09983371 </v>
   <v>      -1.10906851      -6.70177046      -0.06217298 </v>
   <v>      -0.09983393      -0.06217337      -0.50328638 </v>
  </varray>
  <energy>
   <i name="e_fr_energy">    -67.87208193 </i>
   <i name="e_wo_entrp">    -67.87208193 </i>
   <i name="e_0_energy">      0.00000000 </i>
  </energy>
  <time name="totalsc">  519.47  521.12</time>
  <eigenvalues>
   <array>
    <dimension dim="1">band</dimension>
    <dimension dim="2">kpoint</dimension>
    <dimension dim="3">spin</dimension>
    <field>eigene</field>
    <field>occ</field>
    <set>
     <set comment="spin 1">
      <set comment="kpoint 1">
       <r>  -23.8202    1.0000 </r>
       <r>  -23.7182    1.0000 </r>
       <r>  -23.7165    1.0000 </r>
       <r>  -23.4471    1.0000 </r>
       <r>  -23.4254    1.0000 </r>
       <r>  -23.3190    1.0000 </r>
       <r>  -11.8561    1.0000 </r>
       <r>  -11.8476    1.0000 </r>
       <r>  -11.8220    1.0000 </r>
       <r>  -11.2189    1.0000 </r>
       <r>  -11.0842    1.0000 </r>
       <r>  -11.0534    1.0000 </r>
       <r>   -8.6678    1.0000 </r>
       <r>   -8.6001    1.0000 </r>
       <r>   -8.5965    1.0000 </r>
       <r>   -7.9400    1.0000 </r>
       <r>   -7.9163    1.0000 </r>
       <r>   -7.8019    1.0000 </r>
       <r>   -7.4377    1.0000 </r>
       <r>   -6.8365    1.0000 </r>
       <r>   -6.4703    1.0000 </r>
       <r>   -6.4385    1.0000 </r>
       <r>   -6.3073    1.0000 </r>
       <r>   -5.9247    1.0000 </r>
       <r>   -5.9054    1.0000 </r>
       <r>   -5.9041    1.0000 </r>
       <r>   -5.8477    1.0000 </r>
       <r>   -5.2872    1.0000 </r>
       <r>   -5.2832    1.0000 </r>
       <r>   -5.2823    1.0000 </r>
       <r>   -5.2797    1.0000 </r>
       <r>   -5.2426    1.0000 </r>
       <r>   -5.2411    1.0000 </r>
       <r>   -4.7652    1.0000 </r>
       <r>   -4.7305    1.0000 </r>
       <r>   -4.7243    1.0000 </r>
       <r>   -4.7172    1.0000 </r>
       <r>   -4.7160    1.0000 </r>
       <r>   -4.5909    1.0000 </r>
       <r>   -4.5888    1.0000 </r>
       <r>   -3.8587    1.0000 </r>
       <r>   -3.8542    1.0000 </r>
       <r>   -3.8381    1.0000 </r>
       <r>   -3.8350    1.0000 </r>
       <r>   -3.6968    1.0000 </r>
       <r>   -3.6943    1.0000 </r>
       <r>   -3.2527    1.0000 </r>
       <r>   -2.7277    1.0000 </r>
       <r>   -2.7227    1.0000 </r>
       <r>   -2.6750    1.0000 </r>
       <r>   -2.6701    1.0000 </r>
       <r>   -2.6184    1.0000 </r>
       <r>   -2.6152    1.0000 </r>
       <r>   -1.8235    1.0000 </r>
       <r>   -1.3196    1.0000 </r>
       <r>   -1.3118    1.0000 </r>
       <r>   -1.2254    1.0000 </r>
       <r>   -1.2231    1.0000 </r>
       <r>   -1.1617    1.0000 </r>
       <r>   -1.1120    1.0000 </r>
       <r>   -1.1080    1.0000 </r>
       <r>   -1.1013    1.0000 </r>
       <r>   -1.0613    1.0000 </r>
       <r>   -1.0595    1.0000 </r>
       <r>   -1.0569    1.0000 </r>
       <r>   -1.0567    1.0000 </r>
       <r>   -0.7799    1.0000 </r>
       <r>   -0.6603    1.0000 </r>
       <r>   -0.5780    0.0000 </r>
       <r>   -0.5497    0.0000 </r>
       <r>   -0.4318    0.0000 </r>
       <r>   -0.4187    0.0000 </r>
       <r>   -0.1849    0.0000 </r>
       <r>   -0.1163    0.0000 </r>
       <r>   -0.1076    0.0000 </r>
       <r>    0.0836    0.0000 </r>
       <r>    0.0921    0.0000 </r>
       <r>    0.1869    0.0000 </r>
       <r>    0.1891    0.0000 </r>
       <r>    0.2361    0.0000 </r>
       <r>    0.2816    0.0000 </r>
       <r>    0.4591    0.0000 </r>
       <r>    0.4619    0.0000 </r>
       <r>    0.7777    0.0000 </r>
       <r>    0.9842    0.0000 </r>
       <r>    0.9852    0.0000 </r>
       <r>    1.0017    0.0000 </r>
       <r>    1.0020    0.0000 </r>
       <r>    1.0085    0.0000 </r>
       <r>    1.0091    0.0000 </r>
       <r>    1.0628    0.0000 </r>
       <r>    1.1717    0.0000 </r>
       <r>    1.2332    0.0000 </r>
       <r>    1.3048    0.0000 </r>
       <r>    1.5605    0.0000 </r>
       <r>    1.5613    0.0000 </r>
       <r>    1.5754    0.0000 </r>
       <r>    1.5772    0.0000 </r>
       <r>    1.5886    0.0000 </r>
       <r>    1.5902    0.0000 </r>
       <r>    1.6835    0.0000 </r>
       <r>    1.7469    0.0000 </r>
      </set>
      <set comment="kpoint 2">
       <r>  -23.8069    1.0000 </r>
       <r>  -23.7633    1.0000 </r>
       <r>  -23.6821    1.0000 </r>
       <r>  -23.4759    1.0000 </r>
       <r>  -23.3850    1.0000 </r>
       <r>  -23.3334    1.0000 </r>
       <r>  -11.8560    1.0000 </r>
       <r>  -11.8415    1.0000 </r>
       <r>  -11.8276    1.0000 </r>
       <r>  -11.1990    1.0000 </r>
       <r>  -11.1371    1.0000 </r>
       <r>  -11.0207    1.0000 </r>
       <r>   -8.6462    1.0000 </r>
       <r>   -8.6134    1.0000 </r>
       <r>   -8.6073    1.0000 </r>
       <r>   -7.9252    1.0000 </r>
       <r>   -7.8985    1.0000 </r>
       <r>   -7.8311    1.0000 </r>
       <r>   -7.1953    1.0000 </r>
       <r>   -6.6065    1.0000 </r>
       <r>   -6.5056    1.0000 </r>
       <r>   -6.4805    1.0000 </r>
       <r>   -6.3810    1.0000 </r>
       <r>   -6.3130    1.0000 </r>
       <r>   -5.9324    1.0000 </r>
       <r>   -5.8980    1.0000 </r>
       <r>   -5.8616    1.0000 </r>
       <r>   -5.8487    1.0000 </r>
       <r>   -5.7608    1.0000 </r>
       <r>   -5.7310    1.0000 </r>
       <r>   -5.6745    1.0000 </r>
       <r>   -5.1971    1.0000 </r>
       <r>   -5.1047    1.0000 </r>
       <r>   -4.9771    1.0000 </r>
       <r>   -4.5285    1.0000 </r>
       <r>   -4.3353    1.0000 </r>
       <r>   -4.3189    1.0000 </r>
       <r>   -4.3043    1.0000 </r>
       <r>   -4.2201    1.0000 </r>
       <r>   -3.8321    1.0000 </r>
       <r>   -3.7814    1.0000 </r>
       <r>   -3.6797    1.0000 </r>
       <r>   -3.6136    1.0000 </r>
       <r>   -3.1695    1.0000 </r>
       <r>   -3.1065    1.0000 </r>
       <r>   -3.0186    1.0000 </r>
       <r>   -3.0177    1.0000 </r>
       <r>   -2.9330    1.0000 </r>
       <r>   -2.9223    1.0000 </r>
       <r>   -2.9009    1.0000 </r>
       <r>   -2.8217    1.0000 </r>
       <r>   -2.3948    1.0000 </r>
       <r>   -2.3155    1.0000 </r>
       <r>   -2.3043    1.0000 </r>
       <r>   -2.1999    1.0000 </r>
       <r>   -1.8083    1.0000 </r>
       <r>   -1.7431    1.0000 </r>
       <r>   -1.7260    1.0000 </r>
       <r>   -1.6022    1.0000 </r>
       <r>   -1.5745    1.0000 </r>
       <r>   -1.5513    1.0000 </r>
       <r>   -1.5326    1.0000 </r>
       <r>   -1.4807    1.0000 </r>
       <r>   -1.3045    1.0000 </r>
       <r>   -0.9116    1.0000 </r>
       <r>   -0.8871    1.0000 </r>
       <r>   -0.8790    1.0000 </r>
       <r>   -0.6698    1.0000 </r>
       <r>   -0.6547    0.5056 </r>
       <r>   -0.6434    0.1102 </r>
       <r>   -0.6158   -0.0270 </r>
       <r>   -0.4980   -0.0213 </r>
       <r>   -0.3275    0.0000 </r>
       <r>   -0.1060    0.0000 </r>
       <r>   -0.0379    0.0000 </r>
       <r>   -0.0023    0.0000 </r>
       <r>    0.0296    0.0000 </r>
       <r>    0.1345    0.0000 </r>
       <r>    0.1633    0.0000 </r>
       <r>    0.2461    0.0000 </r>
       <r>    0.4791    0.0000 </r>
       <r>    0.4919    0.0000 </r>
       <r>    0.5607    0.0000 </r>
       <r>    0.5694    0.0000 </r>
       <r>    0.5863    0.0000 </r>
       <r>    0.8357    0.0000 </r>
       <r>    0.8417    0.0000 </r>
       <r>    0.8609    0.0000 </r>
       <r>    1.0159    0.0000 </r>
       <r>    1.0193    0.0000 </r>
       <r>    1.0384    0.0000 </r>
       <r>    1.2503    0.0000 </r>
       <r>    1.3005    0.0000 </r>
       <r>    1.3069    0.0000 </r>
       <r>    1.3795    0.0000 </r>
       <r>    1.4200    0.0000 </r>
       <r>    1.4251    0.0000 </r>
       <r>    1.4951    0.0000 </r>
       <r>    1.4752    0.0000 </r>
       <r>    1.5589    0.0000 </r>
       <r>    1.6479    0.0000 </r>
       <r>    1.7445    0.0000 </r>
      </set>
      <set comment="kpoint 3">
       <r>  -23.8068    1.0000 </r>
       <r>  -23.7633    1.0000 </r>
       <r>  -23.6823    1.0000 </r>
       <r>  -23.4757    1.0000 </r>
       <r>  -23.3852    1.0000 </r>
       <r>  -23.3333    1.0000 </r>
       <r>  -11.8560    1.0000 </r>
       <r>  -11.8415    1.0000 </r>
       <r>  -11.8276    1.0000 </r>
       <r>  -11.1990    1.0000 </r>
       <r>  -11.1371    1.0000 </r>
       <r>  -11.0207    1.0000 </r>
       <r>   -8.6459    1.0000 </r>
       <r>   -8.6143    1.0000 </r>
       <r>   -8.6067    1.0000 </r>
       <r>   -7.9243    1.0000 </r>
       <r>   -7.8992    1.0000 </r>
       <r>   -7.8313    1.0000 </r>
       <r>   -7.1953    1.0000 </r>
       <r>   -6.6065    1.0000 </r>
       <r>   -6.5055    1.0000 </r>
       <r>   -6.4804    1.0000 </r>
       <r>   -6.3810    1.0000 </r>
       <r>   -6.3130    1.0000 </r>
       <r>   -5.9327    1.0000 </r>
       <r>   -5.8973    1.0000 </r>
       <r>   -5.8615    1.0000 </r>
       <r>   -5.8491    1.0000 </r>
       <r>   -5.7614    1.0000 </r>
       <r>   -5.7304    1.0000 </r>
       <r>   -5.6746    1.0000 </r>
       <r>   -5.1985    1.0000 </r>
       <r>   -5.1032    1.0000 </r>
       <r>   -4.9770    1.0000 </r>
       <r>   -4.5285    1.0000 </r>
       <r>   -4.3360    1.0000 </r>
       <r>   -4.3198    1.0000 </r>
       <r>   -4.3039    1.0000 </r>
       <r>   -4.2186    1.0000 </r>
       <r>   -3.8319    1.0000 </r>
       <r>   -3.7827    1.0000 </r>
       <r>   -3.6787    1.0000 </r>
       <r>   -3.6138    1.0000 </r>
       <r>   -3.1701    1.0000 </r>
       <r>   -3.1057    1.0000 </r>
       <r>   -3.0187    1.0000 </r>
       <r>   -3.0175    1.0000 </r>
       <r>   -2.9338    1.0000 </r>
       <r>   -2.9233    1.0000 </r>
       <r>   -2.9005    1.0000 </r>
       <r>   -2.8205    1.0000 </r>
       <r>   -2.3962    1.0000 </r>
       <r>   -2.3154    1.0000 </r>
       <r>   -2.3030    1.0000 </r>
       <r>   -2.2004    1.0000 </r>
       <r>   -1.8094    1.0000 </r>
       <r>   -1.7418    1.0000 </r>
       <r>   -1.7262    1.0000 </r>
       <r>   -1.6022    1.0000 </r>
       <r>   -1.5748    1.0000 </r>
       <r>   -1.5527    1.0000 </r>
       <r>   -1.5323    1.0000 </r>
       <r>   -1.4791    1.0000 </r>
       <r>   -1.3074    1.0000 </r>
       <r>   -0.9117    1.0000 </r>
       <r>   -0.8862    1.0000 </r>
       <r>   -0.8789    1.0000 </r>
       <r>   -0.6719    1.0000 </r>
       <r>   -0.6496    0.4886 </r>
       <r>   -0.6406    0.0792 </r>
       <r>   -0.6152   -0.0278 </r>
       <r>   -0.4964   -0.0214 </r>
       <r>   -0.3284    0.0000 </r>
       <r>   -0.1038    0.0000 </r>
       <r>   -0.0361    0.0000 </r>
       <r>   -0.0050    0.0000 </r>
       <r>    0.0274    0.0000 </r>
       <r>    0.1354    0.0000 </r>
       <r>    0.1612    0.0000 </r>
       <r>    0.2451    0.0000 </r>
       <r>    0.4800    0.0000 </r>
       <r>    0.4883    0.0000 </r>
       <r>    0.5560    0.0000 </r>
       <r>    0.5698    0.0000 </r>
[...]
       <r>   -21.9269     0.0000    12.0000 </r>
       <r>   -21.8271     0.0000    12.0000 </r>
       <r>   -21.7273     0.0000    12.0000 </r>
       <r>   -21.6274     0.0000    12.0000 </r>
       <r>   -21.5276     0.0000    12.0000 </r>
       <r>   -21.4278     0.0000    12.0000 </r>
       <r>   -21.3280     0.0000    12.0000 </r>
       <r>   -21.2281     0.0000    12.0000 </r>
       <r>   -21.1283     0.0000    12.0000 </r>
       <r>   -21.0285     0.0000    12.0000 </r>
       <r>   -20.9286     0.0000    12.0000 </r>
       <r>   -20.8288     0.0000    12.0000 </r>
       <r>   -20.7290     0.0000    12.0000 </r>
       <r>   -20.6292     0.0000    12.0000 </r>
       <r>   -20.5293     0.0000    12.0000 </r>
       <r>   -20.4295     0.0000    12.0000 </r>
       <r>   -20.3297     0.0000    12.0000 </r>
       <r>   -20.2298     0.0000    12.0000 </r>
       <r>   -20.1300     0.0000    12.0000 </r>
       <r>   -20.0302     0.0000    12.0000 </r>
       <r>   -19.9304     0.0000    12.0000 </r>
       <r>   -19.8305     0.0000    12.0000 </r>
       <r>   -19.7307     0.0000    12.0000 </r>
       <r>   -19.6309     0.0000    12.0000 </r>
       <r>   -19.5310     0.0000    12.0000 </r>
       <r>   -19.4312     0.0000    12.0000 </r>
       <r>   -19.3314     0.0000    12.0000 </r>
       <r>   -19.2316     0.0000    12.0000 </r>
       <r>   -19.1317     0.0000    12.0000 </r>
       <r>   -19.0319     0.0000    12.0000 </r>
       <r>   -18.9321     0.0000    12.0000 </r>
       <r>   -18.8322     0.0000    12.0000 </r>
       <r>   -18.7324     0.0000    12.0000 </r>
       <r>   -18.6326     0.0000    12.0000 </r>
       <r>   -18.5328     0.0000    12.0000 </r>
       <r>   -18.4329     0.0000    12.0000 </r>
       <r>   -18.3331     0.0000    12.0000 </r>
       <r>   -18.2333     0.0000    12.0000 </r>
       <r>   -18.1334     0.0000    12.0000 </r>
       <r>   -18.0336     0.0000    12.0000 </r>
       <r>   -17.9338     0.0000    12.0000 </r>
       <r>   -17.8340     0.0000    12.0000 </r>
       <r>   -17.7341     0.0000    12.0000 </r>
       <r>   -17.6343     0.0000    12.0000 </r>
       <r>   -17.5345     0.0000    12.0000 </r>
       <r>   -17.4346     0.0000    12.0000 </r>
       <r>   -17.3348     0.0000    12.0000 </r>
       <r>   -17.2350     0.0000    12.0000 </r>
       <r>   -17.1352     0.0000    12.0000 </r>
       <r>   -17.0353     0.0000    12.0000 </r>
       <r>   -16.9355     0.0000    12.0000 </r>
       <r>   -16.8357     0.0000    12.0000 </r>
       <r>   -16.7358     0.0000    12.0000 </r>
       <r>   -16.6360     0.0000    12.0000 </r>
       <r>   -16.5362     0.0000    12.0000 </r>
       <r>   -16.4364     0.0000    12.0000 </r>
       <r>   -16.3365     0.0000    12.0000 </r>
       <r>   -16.2367     0.0000    12.0000 </r>
       <r>   -16.1369     0.0000    12.0000 </r>
       <r>   -16.0370     0.0000    12.0000 </r>
       <r>   -15.9372     0.0000    12.0000 </r>
       <r>   -15.8374     0.0000    12.0000 </r>
       <r>   -15.7376     0.0000    12.0000 </r>
       <r>   -15.6377     0.0000    12.0000 </r>
       <r>   -15.5379     0.0000    12.0000 </r>
       <r>   -15.4381     0.0000    12.0000 </r>
       <r>   -15.3382     0.0000    12.0000 </r>
       <r>   -15.2384     0.0000    12.0000 </r>
       <r>   -15.1386     0.0000    12.0000 </r>
       <r>   -15.0388     0.0000    12.0000 </r>
       <r>   -14.9389     0.0000    12.0000 </r>
       <r>   -14.8391     0.0000    12.0000 </r>
       <r>   -14.7393     0.0000    12.0000 </r>
       <r>   -14.6394     0.0000    12.0000 </r>
       <r>   -14.5396     0.0000    12.0000 </r>
       <r>   -14.4398     0.0000    12.0000 </r>
       <r>   -14.3400     0.0000    12.0000 </r>
       <r>   -14.2401     0.0000    12.0000 </r>
       <r>   -14.1403     0.0000    12.0000 </r>
       <r>   -14.0405     0.0000    12.0000 </r>
       <r>   -13.9406     0.0000    12.0000 </r>
       <r>   -13.8408     0.0000    12.0000 </r>
       <r>   -13.7410     0.0000    12.0000 </r>
       <r>   -13.6412     0.0000    12.0000 </r>
       <r>   -13.5413     0.0000    12.0000 </r>
       <r>   -13.4415     0.0000    12.0000 </r>
       <r>   -13.3417     0.0000    12.0000 </r>
       <r>   -13.2418     0.0000    12.0000 </r>
       <r>   -13.1420     0.0000    12.0000 </r>
       <r>   -13.0422     0.0000    12.0000 </r>
       <r>   -12.9424     0.0000    12.0000 </r>
       <r>   -12.8425     0.0000    12.0000 </r>
       <r>   -12.7427     0.0000    12.0000 </r>
       <r>   -12.6429     0.0000    12.0000 </r>
       <r>   -12.5430     0.0000    12.0000 </r>
       <r>   -12.4432     0.0000    12.0000 </r>
       <r>   -12.3434     0.0000    12.0000 </r>
       <r>   -12.2436     0.0000    12.0000 </r>
       <r>   -12.1437     0.0000    12.0000 </r>
       <r>   -12.0439     0.0000    12.0000 </r>
       <r>   -11.9441     0.0000    12.0000 </r>
       <r>   -11.8442   143.7731    14.1621 </r>
       <r>   -11.7444     0.0000    18.0000 </r>
       <r>   -11.6446     0.0000    18.0000 </r>
       <r>   -11.5448     0.0000    18.0000 </r>
       <r>   -11.4449     0.0000    18.0000 </r>
       <r>   -11.3451     0.0000    18.0000 </r>
       <r>   -11.2453     0.0000    18.0000 </r>
       <r>   -11.1454     0.0000    20.0000 </r>
       <r>   -11.0456    24.7159    22.0769 </r>
       <r>   -10.9458     0.0000    24.0000 </r>
       <r>   -10.8460     0.0000    24.0000 </r>
       <r>   -10.7461     0.0000    24.0000 </r>
       <r>   -10.6463     0.0000    24.0000 </r>
       <r>   -10.5465     0.0000    24.0000 </r>
       <r>   -10.4466     0.0000    24.0000 </r>
       <r>   -10.3468     0.0000    24.0000 </r>
       <r>   -10.2470     0.0000    24.0000 </r>
       <r>   -10.1472     0.0000    24.0000 </r>
       <r>   -10.0473     0.0000    24.0000 </r>
       <r>    -9.9475     0.0000    24.0000 </r>
       <r>    -9.8477     0.0000    24.0000 </r>
       <r>    -9.7478     0.0000    24.0000 </r>
       <r>    -9.6480     0.0000    24.0000 </r>
       <r>    -9.5482     0.0000    24.0000 </r>
       <r>    -9.4484     0.0000    24.0000 </r>
       <r>    -9.3485     0.0000    24.0000 </r>
       <r>    -9.2487     0.0000    24.0000 </r>
       <r>    -9.1489     0.0000    24.0000 </r>
       <r>    -9.0490     0.0000    24.0000 </r>
       <r>    -8.9492     0.0000    24.0000 </r>
       <r>    -8.8494     0.0000    24.0000 </r>
       <r>    -8.7496     0.0000    24.0000 </r>
       <r>    -8.6497    73.2990    24.6488 </r>
       <r>    -8.5499     0.0000    30.0000 </r>
       <r>    -8.4501     0.0000    30.0000 </r>
       <r>    -8.3502     0.0000    30.0000 </r>
       <r>    -8.2504     0.0000    30.0000 </r>
       <r>    -8.1506     0.0000    30.0000 </r>
       <r>    -8.0507     0.0000    30.0000 </r>
       <r>    -7.9509     0.0000    30.0000 </r>
       <r>    -7.8511    10.1314    34.0095 </r>
       <r>    -7.7513     0.0000    36.0000 </r>
       <r>    -7.6514     0.0000    36.0000 </r>
       <r>    -7.5516     0.0000    36.0000 </r>
       <r>    -7.4518     0.0000    36.0000 </r>
       <r>    -7.3519     1.9474    36.0835 </r>
       <r>    -7.2521     4.2134    36.3910 </r>
       <r>    -7.1523     5.0656    36.8957 </r>
       <r>    -7.0525     3.9057    37.3435 </r>
       <r>    -6.9526     2.7459    37.6755 </r>
       <r>    -6.8528     1.5860    37.8917 </r>
       <r>    -6.7530     2.5771    38.0820 </r>
       <r>    -6.6531    23.3443    39.0055 </r>
       <r>    -6.5533    10.8768    40.8536 </r>
       <r>    -6.4535    36.0763    43.6380 </r>
       <r>    -6.3537    13.9545    45.6766 </r>
       <r>    -6.2538     2.8104    47.5375 </r>
       <r>    -6.1540     1.9580    47.7755 </r>
       <r>    -6.0542     9.5434    48.0865 </r>
       <r>    -5.9543    31.4096    50.1307 </r>
       <r>    -5.8545    88.4956    55.1871 </r>
       <r>    -5.7547    23.3761    57.7262 </r>
       <r>    -5.6549    14.9522    59.0235 </r>
       <r>    -5.5550    11.1774    60.3278 </r>
       <r>    -5.4552     7.4027    61.2552 </r>
       <r>    -5.3554     3.6279    61.8057 </r>
       <r>    -5.2555     0.5322    61.9887 </r>
       <r>    -5.1557    19.5230    64.6008 </r>
       <r>    -5.0559     0.0000    66.0000 </r>
       <r>    -4.9561    11.6285    66.2616 </r>
       <r>    -4.8562     7.1871    67.2007 </r>
       <r>    -4.7564     3.0062    67.6977 </r>
       <r>    -4.6566     5.4869    68.0616 </r>
       <r>    -4.5567    10.1502    68.8284 </r>
       <r>    -4.4569    13.5739    71.2306 </r>
       <r>    -4.3571    22.8077    73.0465 </r>
       <r>    -4.2573    21.4015    75.0405 </r>
       <r>    -4.1574    18.8334    77.3754 </r>
       <r>    -4.0576     1.2419    78.3299 </r>
       <r>    -3.9578     3.1253    78.4717 </r>
       <r>    -3.8579    30.1599    80.1250 </r>
       <r>    -3.7581    13.3305    82.9828 </r>
       <r>    -3.6583     5.5340    84.4785 </r>
       <r>    -3.5585     6.4739    85.1201 </r>
       <r>    -3.4586     6.3971    85.7625 </r>
       <r>    -3.3588     6.3202    86.3973 </r>
       <r>    -3.2590     6.2433    87.0244 </r>
       <r>    -3.1591    31.2704    87.9839 </r>
       <r>    -3.0593     6.4994    91.0388 </r>
       <r>    -2.9595    10.0768    91.9679 </r>
       <r>    -2.8597    37.7747    94.8254 </r>
       <r>    -2.7598    32.4938    98.6754 </r>
       <r>    -2.6600    13.8838   100.8733 </r>
       <r>    -2.5602     7.1106   101.8706 </r>
       <r>    -2.4603     6.5138   102.5110 </r>
       <r>    -2.3605    29.9251   105.5515 </r>
       <r>    -2.2607     2.5114   107.4510 </r>
       <r>    -2.1609    14.4187   108.2194 </r>
       <r>    -2.0610     6.4834   109.2627 </r>
       <r>    -1.9612     6.4829   109.6917 </r>
       <r>    -1.8614    24.1431   111.1926 </r>
       <r>    -1.7615    33.5023   114.2704 </r>
       <r>    -1.6617    35.9135   117.5631 </r>
       <r>    -1.5619    34.5232   121.2051 </r>
       <r>    -1.4621    15.6076   123.4768 </r>
       <r>    -1.3622    10.4350   124.7767 </r>
       <r>    -1.2624    11.7900   127.1613 </r>
       <r>    -1.1626     8.9381   128.1833 </r>
       <r>    -1.0627    12.4528   129.1534 </r>
       <r>    -0.9629    33.0924   131.3905 </r>
       <r>    -0.8631    18.0118   134.3848 </r>
       <r>    -0.7633     9.0583   135.6406 </r>
       <r>    -0.6634    67.7233   137.6556 </r>
       <r>    -0.5636    17.8754   142.1267 </r>
       <r>    -0.4638    16.9329   144.0240 </r>
       <r>    -0.3639    13.1579   145.2177 </r>
       <r>    -0.2641    16.6875   146.6870 </r>
       <r>    -0.1643    12.0475   147.9656 </r>
       <r>    -0.0645    18.0014   149.4831 </r>
       <r>     0.0354    88.5491   151.9245 </r>
       <r>     0.1352    39.2396   155.2172 </r>
       <r>     0.2350    72.8276   159.1276 </r>
       <r>     0.3349     6.4075   160.3077 </r>
       <r>     0.4347    13.8783   161.3202 </r>
       <r>     0.5345    24.0125   163.7518 </r>
       <r>     0.6343    19.8410   168.2300 </r>
       <r>     0.7342     7.9221   169.4032 </r>
       <r>     0.8340    18.5255   169.9325 </r>
       <r>     0.9338    16.0341   174.5877 </r>
       <r>     1.0337    14.6037   176.8460 </r>
       <r>     1.1335    15.9981   179.2198 </r>
       <r>     1.2333    23.4730   181.1765 </r>
       <r>     1.3331    28.4810   184.7235 </r>
       <r>     1.4330    63.1660   188.0878 </r>
       <r>     1.5328    59.6709   193.7663 </r>
       <r>     1.6326    30.6516   198.9132 </r>
       <r>     1.7325     8.4111   200.9213 </r>
       <r>     1.8323     9.5971   201.8318 </r>
       <r>     1.9321     6.3669   202.6287 </r>
       <r>     2.0319     3.8626   203.1112 </r>
       <r>     2.1318     0.0000   204.0000 </r>
       <r>     2.2316     0.0000   204.0000 </r>
       <r>     2.3314     0.0000   204.0000 </r>
       <r>     2.4313     0.0000   204.0000 </r>
       <r>     2.5311     0.0000   204.0000 </r>
       <r>     2.6309     0.0000   204.0000 </r>
       <r>     2.7307     0.0000   204.0000 </r>
       <r>     2.8306     0.0000   204.0000 </r>
       <r>     2.9304     0.0000   204.0000 </r>
       <r>     3.0302     0.0000   204.0000 </r>
       <r>     3.1301     0.0000   204.0000 </r>
       <r>     3.2299     0.0000   204.0000 </r>
       <r>     3.3297     0.0000   204.0000 </r>
       <r>     3.4295     0.0000   204.0000 </r>
       <r>     3.5294     0.0000   204.0000 </r>
       <r>     3.6292     0.0000   204.0000 </r>
       <r>     3.7290     0.0000   204.0000 </r>
       <r>     3.8289     0.0000   204.0000 </r>
       <r>     3.9287     0.0000   204.0000 </r>
       <r>     4.0285     0.0000   204.0000 </r>
       <r>     4.1283     0.0000   204.0000 </r>
      </set>
     </set>
    </array>
   </total>
  </dos>
 </calculation>
 <structure name="finalpos" >
  <crystal>
   <varray name="basis" >
    <v>       9.55575275       0.00000000       0.00000000 </v>
    <v>      -4.77787638       8.27552464       0.00000000 </v>
    <v>       0.00000000       0.00000000      32.62509537 </v>
   </varray>
   <i name="volume">   2579.95558872 </i>
   <varray name="rec_basis" >
    <v>       0.10464900       0.06041913       0.00000000 </v>
    <v>       0.00000000       0.12083826       0.00000000 </v>
    <v>       0.00000000       0.00000000       0.03065125 </v>
   </varray>
  </crystal>
  <varray name="positions" >
   <v>       0.00000000       0.00000000       0.00000000 </v>
   <v>       0.00043423       0.00058371       0.15825199 </v>
   <v>       0.99817499       0.99968547       0.33104943 </v>
   <v>       0.00000001       0.33333336       0.00000000 </v>
   <v>       0.00091403       0.33409026       0.15746449 </v>
   <v>       0.99950936       0.33428042       0.31070609 </v>
   <v>       0.00000002       0.66666672       0.00000000 </v>
   <v>       0.00026132       0.66680708       0.15743242 </v>
   <v>       0.00149502       0.66963623       0.31428383 </v>
   <v>       0.33333334       0.00000000       0.00000000 </v>
   <v>       0.33427909       0.00073660       0.15747632 </v>
   <v>       0.33323454       0.00102990       0.31103050 </v>
   <v>       0.33333335       0.33333336       0.00000000 </v>
   <v>       0.33365361       0.33351801       0.15741769 </v>
   <v>       0.33513683       0.33597411       0.31418199 </v>
   <v>       0.33333336       0.66666672       0.00000000 </v>
   <v>       0.33379516       0.66725526       0.15825548 </v>
   <v>       0.33057904       0.66517742       0.33089441 </v>
   <v>       0.66666668       0.00000000       0.00000000 </v>
   <v>       0.66695523       0.00011719       0.15742793 </v>
   <v>       0.66802341       0.00244263       0.31447233 </v>
   <v>       0.66666668       0.33333336       0.00000000 </v>
   <v>       0.66714476       0.33397350       0.15825194 </v>
   <v>       0.66480031       0.33246796       0.33094812 </v>
   <v>       0.66666670       0.66666672       0.00000000 </v>
   <v>       0.66763731       0.66742847       0.15749544 </v>
   <v>       0.66650712       0.66804052       0.31110222 </v>
   <v>       0.11111113       0.22222222       0.07982145 </v>
   <v>       0.11183484       0.21988226       0.23613116 </v>
   <v>       0.11111114       0.55555561       0.07982145 </v>
   <v>       0.11496576       0.55947341       0.23613396 </v>
   <v>       0.11111116       0.88888894       0.07982145 </v>
   <v>       0.10962394       0.88940870       0.23544201 </v>
   <v>       0.44444450       0.22222222       0.07982145 </v>
   <v>       0.44826479       0.22589905       0.23613759 </v>
   <v>       0.44444450       0.55555561       0.07982145 </v>
   <v>       0.44297621       0.55607586       0.23545103 </v>
   <v>       0.44444451       0.88888894       0.07982145 </v>
   <v>       0.44508707       0.88647504       0.23621655 </v>
   <v>       0.77777779       0.22222222       0.07982145 </v>
   <v>       0.77599512       0.22245802       0.23540468 </v>
   <v>       0.77777781       0.55555561       0.07982145 </v>
   <v>       0.77828402       0.55310701       0.23626964 </v>
   <v>       0.77777784       0.88888894       0.07982145 </v>
   <v>       0.78171288       0.89278560       0.23623206 </v>
   <v>       0.99340110       0.99586225       0.39738255 </v>
   <v>       0.24945857       0.91629661       0.41456114 </v>
   <v>       0.92310284       0.25822200       0.41447940 </v>
   <v>       0.65885563       0.32627270       0.39731571 </v>
   <v>       0.58016872       0.58196479       0.41446483 </v>
   <v>       0.31926486       0.65417637       0.39747409 </v>
   <v>       0.98349795       0.08278448       0.41102031 </v>
   <v>       0.07828699       0.98324805       0.41123913 </v>
   <v>       0.35299180       0.01811915       0.41384088 </v>
   <v>       0.22271088       0.89109991       0.38482278 </v>
   <v>       0.02567900       0.36102246       0.41351734 </v>
   <v>       0.89581523       0.23180110       0.38482854 </v>
   <v>       0.64548197       0.41113079       0.41096610 </v>
   <v>       0.74611906       0.31749630       0.41111307 </v>
   <v>       0.68229966       0.68520648       0.41387339 </v>
   <v>       0.55409262       0.55687937       0.38468802 </v>
   <v>       0.30855309       0.74069688       0.41110326 </v>
   <v>       0.40531243       0.64318405       0.41125276 </v>
  </varray>
  <varray name="selective"  type="logical" >
   <v type="logical" >  F  F  F </v>
   <v type="logical" >  T  T  T </v>
   <v type="logical" >  T  T  T </v>
   <v type="logical" >  F  F  F </v>
   <v type="logical" >  T  T  T </v>
   <v type="logical" >  T  T  T </v>
   <v type="logical" >  F  F  F </v>
   <v type="logical" >  T  T  T </v>
   <v type="logical" >  T  T  T </v>
   <v type="logical" >  F  F  F </v>
   <v type="logical" >  T  T  T </v>
   <v type="logical" >  T  T  T </v>
   <v type="logical" >  F  F  F </v>
   <v type="logical" >  T  T  T </v>
   <v type="logical" >  T  T  T </v>
   <v type="logical" >  F  F  F </v>
   <v type="logical" >  T  T  T </v>
   <v type="logical" >  T  T  T </v>
   <v type="logical" >  F  F  F </v>
   <v type="logical" >  T  T  T </v>
   <v type="logical" >  T  T  T </v>
   <v type="logical" >  F  F  F </v>
   <v type="logical" >  T  T  T </v>
   <v type="logical" >  T  T  T </v>
   <v type="logical" >  F  F  F </v>
   <v type="logical" >  T  T  T </v>
   <v type="logical" >  T  T  T </v>
   <v type="logical" >  F  F  F </v>
   <v type="logical" >  T  T  T </v>
   <v type="logical" >  F  F  F </v>
   <v type="logical" >  T  T  T </v>
   <v type="logical" >  F  F  F </v>
   <v type="logical" >  T  T  T </v>
   <v type="logical" >  F  F  F </v>
   <v type="logical" >  T  T  T </v>
   <v type="logical" >  F  F  F </v>
   <v type="logical" >  T  T  T </v>
   <v type="logical" >  F  F  F </v>
   <v type="logical" >  T  T  T </v>
   <v type="logical" >  F  F  F </v>
   <v type="logical" >  T  T  T </v>
   <v type="logical" >  F  F  F </v>
   <v type="logical" >  T  T  T </v>
   <v type="logical" >  F  F  F </v>
   <v type="logical" >  T  T  T </v>
   <v type="logical" >  T  T  T </v>
   <v type="logical" >  T  T  T </v>
   <v type="logical" >  T  T  T </v>
   <v type="logical" >  T  T  T </v>
   <v type="logical" >  T  T  T </v>
   <v type="logical" >  T  T  T </v>
   <v type="logical" >  T  T  T </v>
   <v type="logical" >  T  T  T </v>
   <v type="logical" >  T  T  T </v>
   <v type="logical" >  T  T  T </v>
   <v type="logical" >  T  T  T </v>
   <v type="logical" >  T  T  T </v>
   <v type="logical" >  T  T  T </v>
   <v type="logical" >  T  T  T </v>
   <v type="logical" >  T  T  T </v>
   <v type="logical" >  T  T  T </v>
   <v type="logical" >  T  T  T </v>
   <v type="logical" >  T  T  T </v>
  </varray>
  <nose>
   <v>      -3.00000000       0.00000000       0.00010000       0.00010000 </v>
  </nose>
 </structure>
</modeling>
