Mg_slab_in_a_box                        
           1
     9.555753    0.000000    0.000000
    -4.777876    8.275525    0.000000
     0.000000    0.000000   32.625095
   Mg   O    H 
  45   6  12
Direct configuration=     1
   0.00000000  0.00000000  0.00000000
   0.00043423  0.00058371  0.15825199
   0.99817499  0.99968547  0.33104943
   0.00000001  0.33333336  0.00000000
   0.00091403  0.33409026  0.15746449
   0.99950936  0.33428042  0.31070609
   0.00000002  0.66666672  0.00000000
   0.00026132  0.66680708  0.15743242
   0.00149502  0.66963623  0.31428383
   0.33333334  0.00000000  0.00000000
   0.33427909  0.00073660  0.15747632
   0.33323454  0.00102990  0.31103050
   0.33333335  0.33333336  0.00000000
   0.33365361  0.33351801  0.15741769
   0.33513683  0.33597411  0.31418199
   0.33333336  0.66666672  0.00000000
   0.33379516  0.66725526  0.15825548
   0.33057904  0.66517742  0.33089441
   0.66666668  0.00000000  0.00000000
   0.66695523  0.00011719  0.15742793
   0.66802341  0.00244263  0.31447233
   0.66666668  0.33333336  0.00000000
   0.66714476  0.33397350  0.15825194
   0.66480031  0.33246796  0.33094812
   0.66666670  0.66666672  0.00000000
   0.66763731  0.66742847  0.15749544
   0.66650712  0.66804052  0.31110222
   0.11111113  0.22222222  0.07982145
   0.11183484  0.21988226  0.23613116
   0.11111114  0.55555561  0.07982145
   0.11496576  0.55947341  0.23613396
   0.11111116  0.88888894  0.07982145
   0.10962394  0.88940870  0.23544201
   0.44444450  0.22222222  0.07982145
   0.44826479  0.22589905  0.23613759
   0.44444450  0.55555561  0.07982145
   0.44297621  0.55607586  0.23545103
   0.44444451  0.88888894  0.07982145
   0.44508707  0.88647504  0.23621655
   0.77777779  0.22222222  0.07982145
   0.77599512  0.22245802  0.23540468
   0.77777781  0.55555561  0.07982145
   0.77828402  0.55310701  0.23626964
   0.77777784  0.88888894  0.07982145
   0.78171288  0.89278560  0.23623206
   0.99340110  0.99586225  0.39738255
   0.24945857  0.91629661  0.41456114
   0.92310284  0.25822200  0.41447940
   0.65885563  0.32627270  0.39731571
   0.58016872  0.58196479  0.41446483
   0.31926486  0.65417637  0.39747409
   0.98349795  0.08278448  0.41102031
   0.07828699  0.98324805  0.41123913
   0.35299180  0.01811915  0.41384088
   0.22271088  0.89109991  0.38482278
   0.02567900  0.36102246  0.41351734
   0.89581523  0.23180110  0.38482854
   0.64548197  0.41113079  0.41096610
   0.74611906  0.31749630  0.41111307
   0.68229966  0.68520648  0.41387339
   0.55409262  0.55687937  0.38468802
   0.30855309  0.74069688  0.41110326
   0.40531243  0.64318405  0.41125276
