  63  63   0   0
  0.4095168E+02  0.9555753E-09  0.9555753E-09  0.3262510E-08  0.5000000E-15
  1.000000000000000E-004
  CAR 
 Mg_slab_in_a_box                        
      4.31168926    -26.00093228  301     -0.53584108      1.00000000
    -26.001  0.0000E+00  0.0000E+00
    -25.900  0.0000E+00  0.0000E+00
    -25.799  0.0000E+00  0.0000E+00
    -25.698  0.0000E+00  0.0000E+00
    -25.597  0.0000E+00  0.0000E+00
    -25.496  0.0000E+00  0.0000E+00
    -25.395  0.0000E+00  0.0000E+00
    -25.294  0.0000E+00  0.0000E+00
    -25.193  0.0000E+00  0.0000E+00
    -25.092  0.0000E+00  0.0000E+00
    -24.991  0.0000E+00  0.0000E+00
    -24.889  0.0000E+00  0.0000E+00
    -24.788  0.0000E+00  0.0000E+00
    -24.687  0.0000E+00  0.0000E+00
    -24.586  0.0000E+00  0.0000E+00
    -24.485  0.0000E+00  0.0000E+00
    -24.384  0.0000E+00  0.0000E+00
    -24.283  0.0000E+00  0.0000E+00
    -24.182  0.0000E+00  0.0000E+00
    -24.081  0.0000E+00  0.0000E+00
    -23.980  0.0000E+00  0.2000E+01
    -23.879  0.0000E+00  0.2000E+01
    -23.778  0.0000E+00  0.4000E+01
    -23.677  0.0000E+00  0.6000E+01
    -23.576  0.1226E+03  0.7876E+01
    -23.475  0.0000E+00  0.8000E+01
    -23.374  0.0000E+00  0.1000E+02
    -23.273  0.0000E+00  0.1200E+02
    -23.172  0.0000E+00  0.1200E+02
    -23.071  0.0000E+00  0.1200E+02
    -22.970  0.0000E+00  0.1200E+02
    -22.869  0.0000E+00  0.1200E+02
    -22.768  0.0000E+00  0.1200E+02
    -22.667  0.0000E+00  0.1200E+02
    -22.566  0.0000E+00  0.1200E+02
    -22.464  0.0000E+00  0.1200E+02
    -22.363  0.0000E+00  0.1200E+02
    -22.262  0.0000E+00  0.1200E+02
    -22.161  0.0000E+00  0.1200E+02
    -22.060  0.0000E+00  0.1200E+02
    -21.959  0.0000E+00  0.1200E+02
    -21.858  0.0000E+00  0.1200E+02
    -21.757  0.0000E+00  0.1200E+02
    -21.656  0.0000E+00  0.1200E+02
    -21.555  0.0000E+00  0.1200E+02
    -21.454  0.0000E+00  0.1200E+02
    -21.353  0.0000E+00  0.1200E+02
    -21.252  0.0000E+00  0.1200E+02
    -21.151  0.0000E+00  0.1200E+02
    -21.050  0.0000E+00  0.1200E+02
    -20.949  0.0000E+00  0.1200E+02
    -20.848  0.0000E+00  0.1200E+02
    -20.747  0.0000E+00  0.1200E+02
    -20.646  0.0000E+00  0.1200E+02
    -20.545  0.0000E+00  0.1200E+02
    -20.444  0.0000E+00  0.1200E+02
    -20.343  0.0000E+00  0.1200E+02
    -20.242  0.0000E+00  0.1200E+02
    -20.140  0.0000E+00  0.1200E+02
    -20.039  0.0000E+00  0.1200E+02
    -19.938  0.0000E+00  0.1200E+02
    -19.837  0.0000E+00  0.1200E+02
    -19.736  0.0000E+00  0.1200E+02
    -19.635  0.0000E+00  0.1200E+02
    -19.534  0.0000E+00  0.1200E+02
    -19.433  0.0000E+00  0.1200E+02
    -19.332  0.0000E+00  0.1200E+02
    -19.231  0.0000E+00  0.1200E+02
    -19.130  0.0000E+00  0.1200E+02
    -19.029  0.0000E+00  0.1200E+02
    -18.928  0.0000E+00  0.1200E+02
    -18.827  0.0000E+00  0.1200E+02
    -18.726  0.0000E+00  0.1200E+02
    -18.625  0.0000E+00  0.1200E+02
    -18.524  0.0000E+00  0.1200E+02
    -18.423  0.0000E+00  0.1200E+02
    -18.322  0.0000E+00  0.1200E+02
    -18.221  0.0000E+00  0.1200E+02
    -18.120  0.0000E+00  0.1200E+02
    -18.019  0.0000E+00  0.1200E+02
    -17.918  0.0000E+00  0.1200E+02
    -17.817  0.0000E+00  0.1200E+02
    -17.715  0.0000E+00  0.1200E+02
    -17.614  0.0000E+00  0.1200E+02
    -17.513  0.0000E+00  0.1200E+02
    -17.412  0.0000E+00  0.1200E+02
    -17.311  0.0000E+00  0.1200E+02
    -17.210  0.0000E+00  0.1200E+02
    -17.109  0.0000E+00  0.1200E+02
    -17.008  0.0000E+00  0.1200E+02
    -16.907  0.0000E+00  0.1200E+02
    -16.806  0.0000E+00  0.1200E+02
    -16.705  0.0000E+00  0.1200E+02
    -16.604  0.0000E+00  0.1200E+02
    -16.503  0.0000E+00  0.1200E+02
    -16.402  0.0000E+00  0.1200E+02
    -16.301  0.0000E+00  0.1200E+02
    -16.200  0.0000E+00  0.1200E+02
    -16.099  0.0000E+00  0.1200E+02
    -15.998  0.0000E+00  0.1200E+02
    -15.897  0.0000E+00  0.1200E+02
    -15.796  0.0000E+00  0.1200E+02
    -15.695  0.0000E+00  0.1200E+02
    -15.594  0.0000E+00  0.1200E+02
    -15.493  0.0000E+00  0.1200E+02
    -15.392  0.0000E+00  0.1200E+02
    -15.290  0.0000E+00  0.1200E+02
    -15.189  0.0000E+00  0.1200E+02
    -15.088  0.0000E+00  0.1200E+02
    -14.987  0.0000E+00  0.1200E+02
    -14.886  0.0000E+00  0.1200E+02
    -14.785  0.0000E+00  0.1200E+02
    -14.684  0.0000E+00  0.1200E+02
    -14.583  0.0000E+00  0.1200E+02
    -14.482  0.0000E+00  0.1200E+02
    -14.381  0.0000E+00  0.1200E+02
    -14.280  0.0000E+00  0.1200E+02
    -14.179  0.0000E+00  0.1200E+02
    -14.078  0.0000E+00  0.1200E+02
    -13.977  0.0000E+00  0.1200E+02
    -13.876  0.0000E+00  0.1200E+02
    -13.775  0.0000E+00  0.1200E+02
    -13.674  0.0000E+00  0.1200E+02
    -13.573  0.0000E+00  0.1200E+02
    -13.472  0.0000E+00  0.1200E+02
    -13.371  0.0000E+00  0.1200E+02
    -13.270  0.0000E+00  0.1200E+02
    -13.169  0.0000E+00  0.1200E+02
    -13.068  0.0000E+00  0.1200E+02
    -12.967  0.0000E+00  0.1200E+02
    -12.865  0.0000E+00  0.1200E+02
    -12.764  0.0000E+00  0.1200E+02
    -12.663  0.0000E+00  0.1200E+02
    -12.562  0.0000E+00  0.1200E+02
    -12.461  0.0000E+00  0.1200E+02
    -12.360  0.0000E+00  0.1200E+02
    -12.259  0.0000E+00  0.1200E+02
    -12.158  0.0000E+00  0.1200E+02
    -12.057  0.0000E+00  0.1400E+02
    -11.956  0.0000E+00  0.1400E+02
    -11.855  0.0000E+00  0.1600E+02
    -11.754  0.0000E+00  0.1800E+02
    -11.653  0.0000E+00  0.2000E+02
    -11.552  0.0000E+00  0.2000E+02
    -11.451  0.0000E+00  0.2000E+02
    -11.350  0.0000E+00  0.2000E+02
    -11.249  0.0000E+00  0.2000E+02
    -11.148  0.0000E+00  0.2000E+02
    -11.047  0.0000E+00  0.2200E+02
    -10.946  0.9854E+02  0.2386E+02
    -10.845  0.0000E+00  0.2400E+02
    -10.744  0.0000E+00  0.2400E+02
    -10.643  0.0000E+00  0.2400E+02
    -10.541  0.0000E+00  0.2400E+02
    -10.440  0.0000E+00  0.2400E+02
    -10.339  0.0000E+00  0.2400E+02
    -10.238  0.0000E+00  0.2400E+02
    -10.137  0.0000E+00  0.2400E+02
    -10.036  0.0000E+00  0.2400E+02
     -9.935  0.0000E+00  0.2400E+02
     -9.834  0.0000E+00  0.2400E+02
     -9.733  0.0000E+00  0.2400E+02
     -9.632  0.0000E+00  0.2400E+02
     -9.531  0.0000E+00  0.2400E+02
     -9.430  0.0000E+00  0.2400E+02
     -9.329  0.0000E+00  0.2400E+02
     -9.228  0.0000E+00  0.2400E+02
     -9.127  0.0000E+00  0.2400E+02
     -9.026  0.0000E+00  0.2400E+02
     -8.925  0.0000E+00  0.2400E+02
     -8.824  0.8600E+02  0.2449E+02
     -8.723  0.0000E+00  0.2600E+02
     -8.622  0.0000E+00  0.2800E+02
     -8.521  0.0000E+00  0.3000E+02
     -8.420  0.0000E+00  0.3000E+02
     -8.319  0.0000E+00  0.3000E+02
     -8.218  0.0000E+00  0.3200E+02
     -8.116  0.0000E+00  0.3200E+02
     -8.015  0.0000E+00  0.3200E+02
     -7.914  0.7042E+02  0.3271E+02
     -7.813  0.0000E+00  0.3600E+02
     -7.712  0.0000E+00  0.3600E+02
     -7.611  0.0000E+00  0.3600E+02
     -7.510  0.0000E+00  0.3600E+02
     -7.409  0.0000E+00  0.3600E+02
     -7.308  0.3898E+00  0.3600E+02
     -7.207  0.2857E+01  0.3617E+02
     -7.106  0.5324E+01  0.3658E+02
     -7.005  0.6756E+01  0.3787E+02
     -6.904  0.6947E+01  0.3898E+02
     -6.803  0.4566E+01  0.3956E+02
     -6.702  0.2245E+01  0.3990E+02
     -6.601  0.3512E+01  0.4018E+02
     -6.500  0.8923E+01  0.4233E+02
     -6.399  0.1644E+02  0.4434E+02
     -6.298  0.1310E+02  0.4768E+02
     -6.197  0.3386E+01  0.4947E+02
     -6.096  0.2294E+01  0.4976E+02
     -5.995  0.1752E+01  0.4993E+02
     -5.894  0.3582E+02  0.5167E+02
     -5.793  0.2182E+02  0.5493E+02
     -5.691  0.1878E+02  0.5684E+02
     -5.590  0.7050E+01  0.5851E+02
     -5.489  0.1360E+02  0.5962E+02
     -5.388  0.9653E+01  0.6079E+02
     -5.287  0.5703E+01  0.6157E+02
     -5.186  0.1753E+01  0.6195E+02
     -5.085  0.8145E+02  0.6283E+02
     -4.984  0.0000E+00  0.6600E+02
     -4.883  0.0000E+00  0.6600E+02
     -4.782  0.9756E+01  0.6674E+02
     -4.681  0.5287E+01  0.6750E+02
     -4.580  0.3501E+01  0.6787E+02
     -4.479  0.6891E+01  0.6838E+02
     -4.378  0.4021E+02  0.7074E+02
     -4.277  0.1926E+02  0.7223E+02
     -4.176  0.2393E+02  0.7410E+02
     -4.075  0.2319E+02  0.7639E+02
     -3.974  0.8962E+01  0.7802E+02
     -3.873  0.1287E+01  0.7839E+02
     -3.772  0.1732E+02  0.7912E+02
     -3.671  0.3756E+02  0.8230E+02
     -3.570  0.4526E+01  0.8432E+02
     -3.469  0.6552E+01  0.8493E+02
     -3.368  0.6385E+01  0.8559E+02
     -3.266  0.6219E+01  0.8622E+02
     -3.165  0.6053E+01  0.8684E+02
     -3.064  0.6470E+01  0.8745E+02
     -2.963  0.4762E+01  0.9077E+02
     -2.862  0.1000E+02  0.9155E+02
     -2.761  0.4060E+02  0.9368E+02
     -2.660  0.3654E+02  0.9766E+02
     -2.559  0.1838E+02  0.1004E+03
     -2.458  0.8175E+01  0.1016E+03
     -2.357  0.6558E+01  0.1023E+03
     -2.256  0.2451E+02  0.1051E+03
     -2.155  0.1556E+02  0.1072E+03
     -2.054  0.1531E+02  0.1080E+03
     -1.953  0.7341E+01  0.1092E+03
     -1.852  0.4151E+01  0.1096E+03
     -1.751  0.1943E+02  0.1107E+03
     -1.650  0.3078E+02  0.1136E+03
     -1.549  0.3715E+02  0.1169E+03
     -1.448  0.3594E+02  0.1205E+03
     -1.347  0.1832E+02  0.1231E+03
     -1.246  0.1186E+02  0.1246E+03
     -1.145  0.1320E+02  0.1271E+03
     -1.044  0.9181E+01  0.1282E+03
     -0.942  0.1117E+02  0.1291E+03
     -0.841  0.2953E+02  0.1310E+03
     -0.740  0.1714E+02  0.1343E+03
     -0.639  0.9990E+01  0.1356E+03
     -0.538  0.3904E+02  0.1379E+03
     -0.437  0.1965E+02  0.1420E+03
     -0.336  0.1273E+02  0.1441E+03
     -0.235  0.1179E+02  0.1449E+03
     -0.134  0.1606E+02  0.1468E+03
     -0.033  0.1762E+02  0.1481E+03
      0.068  0.1150E+02  0.1500E+03
      0.169  0.4801E+02  0.1529E+03
      0.270  0.3756E+01  0.1559E+03
      0.371  0.3539E+02  0.1588E+03
      0.472  0.1214E+02  0.1603E+03
      0.573  0.4727E+02  0.1628E+03
      0.674  0.4266E+02  0.1650E+03
      0.775  0.1206E+02  0.1686E+03
      0.876  0.1888E+02  0.1704E+03
      0.977  0.2969E+02  0.1725E+03
      1.078  0.2828E+02  0.1758E+03
      1.179  0.1436E+02  0.1780E+03
      1.280  0.1307E+02  0.1802E+03
      1.381  0.1519E+02  0.1822E+03
      1.483  0.3792E+02  0.1860E+03
      1.584  0.4922E+02  0.1907E+03
      1.685  0.1153E+03  0.1951E+03
      1.786  0.2577E+02  0.1990E+03
      1.887  0.1071E+02  0.2013E+03
      1.988  0.2901E+01  0.2020E+03
      2.089  0.1950E+01  0.2022E+03
      2.190  0.2945E+01  0.2024E+03
      2.291  0.1695E+02  0.2035E+03
      2.392  0.0000E+00  0.2040E+03
      2.493  0.0000E+00  0.2040E+03
      2.594  0.0000E+00  0.2040E+03
      2.695  0.0000E+00  0.2040E+03
      2.796  0.0000E+00  0.2040E+03
      2.897  0.0000E+00  0.2040E+03
      2.998  0.0000E+00  0.2040E+03
      3.099  0.0000E+00  0.2040E+03
      3.200  0.0000E+00  0.2040E+03
      3.301  0.0000E+00  0.2040E+03
      3.402  0.0000E+00  0.2040E+03
      3.503  0.0000E+00  0.2040E+03
      3.604  0.0000E+00  0.2040E+03
      3.705  0.0000E+00  0.2040E+03
      3.806  0.0000E+00  0.2040E+03
      3.908  0.0000E+00  0.2040E+03
      4.009  0.0000E+00  0.2040E+03
      4.110  0.0000E+00  0.2040E+03
      4.211  0.0000E+00  0.2040E+03
      4.312  0.0000E+00  0.2040E+03
