       N       E                     dE             d eps       ncg     rms          rms(c)
RMM:   1     0.124649472991E+04    0.12465E+04   -0.27938E+04   510   0.785E+02
RMM:   2     0.547866353145E+03   -0.69863E+03   -0.75814E+03   510   0.166E+02
RMM:   3     0.312333896730E+03   -0.23553E+03   -0.30068E+03   510   0.834E+01
RMM:   4     0.137053858876E+03   -0.17528E+03   -0.15122E+03   510   0.789E+01
RMM:   5     0.197206771057E+02   -0.11733E+03   -0.94172E+02   510   0.638E+01
RMM:   6    -0.441390455930E+02   -0.63860E+02   -0.48470E+02   510   0.447E+01
RMM:   7    -0.690300770042E+02   -0.24891E+02   -0.19078E+02   510   0.253E+01
RMM:   8    -0.755877722916E+02   -0.65577E+01   -0.54204E+01   510   0.135E+01
RMM:   9    -0.777459141730E+02   -0.21581E+01   -0.20785E+01  1527   0.762E+00
RMM:  10    -0.780422291860E+02   -0.29632E+00   -0.30088E+00  1782   0.280E+00
RMM:  11    -0.780468493656E+02   -0.46202E-02   -0.17768E-01  1751   0.714E-01
RMM:  12    -0.780497777685E+02   -0.29284E-02   -0.35333E-02  1804   0.297E-01    0.194E+01
RMM:  13    -0.682758569790E+02    0.97739E+01   -0.55808E+01  1437   0.132E+01    0.748E+00
RMM:  14    -0.760012480588E+02   -0.77254E+01   -0.37442E+00  1585   0.290E+00    0.698E+00
RMM:  15    -0.683277879731E+02    0.76735E+01   -0.14239E+00  1435   0.108E+00    0.505E+00
RMM:  16    -0.677093383667E+02    0.61845E+00   -0.10944E+00  1502   0.190E+00    0.212E+00
RMM:  17    -0.675666977135E+02    0.14264E+00   -0.31671E-01  1335   0.115E+00    0.807E-01
RMM:  18    -0.675516973558E+02    0.15000E-01   -0.13329E-01  1642   0.697E-01    0.351E-01
RMM:  19    -0.675507760749E+02    0.92128E-03   -0.16510E-02  1417   0.258E-01    0.219E-01
RMM:  20    -0.675513754841E+02   -0.59941E-03   -0.90978E-03  1542   0.181E-01    0.569E-02
RMM:  21    -0.675496914928E+02    0.16840E-02   -0.99037E-04  1519   0.569E-02    0.383E-02
RMM:  22    -0.675419660438E+02    0.77254E-02   -0.98236E-04  1341   0.470E-02    0.392E-02
RMM:  23    -0.675397494231E+02    0.22166E-02   -0.51248E-04  1318   0.436E-02    0.221E-02
RMM:  24    -0.675406693122E+02   -0.91989E-03   -0.14373E-04  1155   0.229E-02    0.170E-02
RMM:  25    -0.675410289051E+02   -0.35959E-03   -0.31350E-04  1123   0.351E-02    0.176E-02
RMM:  26    -0.675408514592E+02    0.17745E-03   -0.85124E-05  1050   0.166E-02    0.550E-03
RMM:  27    -0.675406884689E+02    0.16299E-03   -0.23772E-04  1041   0.186E-02    0.469E-03
RMM:  28    -0.675406861223E+02    0.23466E-05   -0.47999E-05   875   0.875E-03
   1 F= -.67540686E+02 E0= -.67540686E+02  d E =0.000000E+00
