 vasp.5.4.4.18Apr17-6-g9f103f2a35 (build Jun 08 2018 12:06:12) complex          
  
 executed on             LinuxIFC date 2019.06.06  06:54:14
 running on   72 total cores
 distrk:  each k-point on   72 cores,    1 groups
 distr:  one band on NCORES_PER_BAND=  24 cores,    3 groups


--------------------------------------------------------------------------------------------------------


 INCAR:
 POTCAR:    PAW_PBE Mg 13Apr2007                  
 POTCAR:    PAW_PBE O 08Apr2002                   
 POTCAR:    PAW_PBE H 15Jun2001                   

 ----------------------------------------------------------------------------- 
|                                                                             |
|           W    W    AA    RRRRR   N    N  II  N    N   GGGG   !!!           |
|           W    W   A  A   R    R  NN   N  II  NN   N  G    G  !!!           |
|           W    W  A    A  R    R  N N  N  II  N N  N  G       !!!           |
|           W WW W  AAAAAA  RRRRR   N  N N  II  N  N N  G  GGG   !            |
|           WW  WW  A    A  R   R   N   NN  II  N   NN  G    G                |
|           W    W  A    A  R    R  N    N  II  N    N   GGGG   !!!           |
|                                                                             |
|      For optimal performance we recommend to set                            |
|        NCORE= 4 - approx SQRT( number of cores)                             |
|      NCORE specifies how many cores store one orbital (NPAR=cpu/NCORE).     |
|      This setting can  greatly improve the performance of VASP for DFT.     |
|      The default,   NCORE=1            might be grossly inefficient         |
|      on modern multi-core architectures or massively parallel machines.     |
|      Do your own testing !!!!                                               |
|      Unfortunately you need to use the default for GW and RPA calculations. |
|      (for HF NCORE is supported but not extensively tested yet)             |
|                                                                             |
 ----------------------------------------------------------------------------- 


 ----------------------------------------------------------------------------- 
|                                                                             |
|  ADVICE TO THIS USER RUNNING 'VASP/VAMP'   (HEAR YOUR MASTER'S VOICE ...):  |
|                                                                             |
|      You have switched on vdW-DFT.                                          |
|      This routine was written and supplied by Jiri Klimes.                  |
|      We recommed that you carefully read and cite the following             |
|      publication                                                            |
|      J. Klimes, D.R. Bowler, A. Michelides                                  |
|        J. Phys.: Cond Matt. 22 022201 (2010)                                |
|      J. Klimes, D.R. Bowler, A. Michelides                                  |
|        Phys. Rev. B. 83, 195131 (2011)                                      |
|      and references therein.                                                |
|                                                                             |
 ----------------------------------------------------------------------------- 

 POTCAR:    PAW_PBE Mg 13Apr2007                  
   VRHFIN =Mg: s2p0                                                             
   LEXCH  = PE                                                                  
   EATOM  =    23.0369 eV,    1.6932 Ry                                         
                                                                                
   TITEL  = PAW_PBE Mg 13Apr2007                                                
   LULTRA =        F    use ultrasoft PP ?                                      
   IUNSCR =        1    unscreen: 0-lin 1-nonlin 2-no                           
   RPACOR =    1.500    partial core radius                                     
   POMASS =   24.305; ZVAL   =    2.000    mass and valenz                      
   RCORE  =    2.000    outmost cutoff radius                                   
   RWIGS  =    2.880; RWIGS  =    1.524    wigner-seitz radius (au A)           
   ENMAX  =  200.000; ENMIN  =  100.000 eV                                      
   RCLOC  =    1.506    cutoff for local pot                                    
   LCOR   =        T    correct aug charges                                     
   LPAW   =        T    paw PP                                                  
   EAUG   =  454.734                                                            
   DEXC   =    0.000                                                            
   RMAX   =    2.045    core radius for proj-oper                               
   RAUG   =    1.300    factor for augmentation sphere                          
   RDEP   =    2.025    radius for radial grids                                 
   RDEPT  =    1.942    core radius for aug-charge                              
                                                                                
   Atomic configuration                                                         
    6 entries                                                                   
     n  l   j            E        occ.                                          
     1  0  0.50     -1259.6230   2.0000                                         
     2  0  0.50       -79.8442   2.0000                                         
     2  1  1.50       -46.6121   6.0000                                         
     3  0  0.50        -4.7055   2.0000                                         
     3  1  0.50        -1.3660   0.0000                                         
     3  2  1.50        -1.3606   0.0000                                         
   Description                                                                  
     l       E           TYP  RCUT    TYP  RCUT                                 
     0     -4.7054661     23  2.000                                             
     0     27.2116520     23  2.000                                             
     1      1.3605826     23  2.000                                             
     1     27.2116520     23  2.000                                             
     2     -1.3605826     23  2.000                                             
  local pseudopotential read in
  partial core-charges read in
  partial kinetic energy density read in
  atomic valenz-charges read in
  non local Contribution for L=           0  read in
    real space projection operators read in
  non local Contribution for L=           0  read in
    real space projection operators read in
  non local Contribution for L=           1  read in
    real space projection operators read in
  non local Contribution for L=           1  read in
    real space projection operators read in
  non local Contribution for L=           2  read in
    real space projection operators read in
    PAW grid and wavefunctions read in
 
   number of l-projection  operators is LMAX  =           5
   number of lm-projection operators is LMMAX =          13
 
 POTCAR:    PAW_PBE O 08Apr2002                   
   VRHFIN =O: s2p4                                                              
   LEXCH  = PE                                                                  
   EATOM  =   432.3788 eV,   31.7789 Ry                                         
                                                                                
   TITEL  = PAW_PBE O 08Apr2002                                                 
   LULTRA =        F    use ultrasoft PP ?                                      
   IUNSCR =        1    unscreen: 0-lin 1-nonlin 2-no                           
   RPACOR =    1.200    partial core radius                                     
   POMASS =   16.000; ZVAL   =    6.000    mass and valenz                      
   RCORE  =    1.520    outmost cutoff radius                                   
   RWIGS  =    1.550; RWIGS  =    0.820    wigner-seitz radius (au A)           
   ENMAX  =  400.000; ENMIN  =  300.000 eV                                      
   ICORE  =        2    local potential                                         
   LCOR   =        T    correct aug charges                                     
   LPAW   =        T    paw PP                                                  
   EAUG   =  605.392                                                            
   DEXC   =    0.000                                                            
   RMAX   =    1.553    core radius for proj-oper                               
   RAUG   =    1.300    factor for augmentation sphere                          
   RDEP   =    1.550    radius for radial grids                                 
   RDEPT  =    1.329    core radius for aug-charge                              
                                                                                
   Atomic configuration                                                         
    4 entries                                                                   
     n  l   j            E        occ.                                          
     1  0  0.50      -514.6923   2.0000                                         
     2  0  0.50       -23.9615   2.0000                                         
     2  1  0.50        -9.0305   4.0000                                         
     3  2  1.50        -9.5241   0.0000                                         
   Description                                                                  
     l       E           TYP  RCUT    TYP  RCUT                                 
     0    -23.9615318     23  1.200                                             
     0     -9.5240782     23  1.200                                             
     1     -9.0304911     23  1.520                                             
     1      8.1634956     23  1.520                                             
     2     -9.5240782      7  1.500                                             
  local pseudopotential read in
  partial core-charges read in
  partial kinetic energy density read in
  kinetic energy density of atom read in
  atomic valenz-charges read in
  non local Contribution for L=           0  read in
    real space projection operators read in
  non local Contribution for L=           0  read in
    real space projection operators read in
  non local Contribution for L=           1  read in
    real space projection operators read in
  non local Contribution for L=           1  read in
    real space projection operators read in
    PAW grid and wavefunctions read in
 
   number of l-projection  operators is LMAX  =           4
   number of lm-projection operators is LMMAX =           8
 
 POTCAR:    PAW_PBE H 15Jun2001                   
   VRHFIN =H: ultrasoft test                                                    
   LEXCH  = PE                                                                  
   EATOM  =    12.4884 eV,    0.9179 Ry                                         
                                                                                
   TITEL  = PAW_PBE H 15Jun2001                                                 
   LULTRA =        F    use ultrasoft PP ?                                      
   IUNSCR =        0    unscreen: 0-lin 1-nonlin 2-no                           
   RPACOR =    0.000    partial core radius                                     
   POMASS =    1.000; ZVAL   =    1.000    mass and valenz                      
   RCORE  =    1.100    outmost cutoff radius                                   
   RWIGS  =    0.700; RWIGS  =    0.370    wigner-seitz radius (au A)           
   ENMAX  =  250.000; ENMIN  =  200.000 eV                                      
   RCLOC  =    0.701    cutoff for local pot                                    
   LCOR   =        T    correct aug charges                                     
   LPAW   =        T    paw PP                                                  
   EAUG   =  400.000                                                            
   RMAX   =    1.123    core radius for proj-oper                               
   RAUG   =    1.200    factor for augmentation sphere                          
   RDEP   =    1.112    radius for radial grids                                 
   RDEPT  =    0.926    core radius for aug-charge                              
                                                                                
   Atomic configuration                                                         
    2 entries                                                                   
     n  l   j            E        occ.                                          
     1  0  0.50        -6.4927   1.0000                                         
     2  1  0.50        -3.4015   0.0000                                         
   Description                                                                  
     l       E           TYP  RCUT    TYP  RCUT                                 
     0     -6.4927494     23  1.100                                             
     0      6.8029130     23  1.100                                             
     1     -4.0817478     23  1.100                                             
  local pseudopotential read in
  atomic valenz-charges read in
  non local Contribution for L=           0  read in
    real space projection operators read in
  non local Contribution for L=           0  read in
    real space projection operators read in
  non local Contribution for L=           1  read in
    real space projection operators read in
    PAW grid and wavefunctions read in
 
   number of l-projection  operators is LMAX  =           3
   number of lm-projection operators is LMMAX =           5
 
 Optimization of the real space projectors (new method)

 maximal supplied QI-value         = 18.90
 optimisation between [QCUT,QGAM] = [ 11.53, 23.24] = [ 37.21,151.29] Ry 
 Optimized for a Real-space Cutoff    1.28 Angstroem

   l    n(q)    QCUT    max X(q) W(low)/X(q) W(high)/X(q)  e(spline) 
   0      9    11.527    28.265    0.62E-04    0.53E-04    0.73E-07
   0      9    11.527    10.429    0.52E-04    0.40E-04    0.58E-07
   1      8    11.527    13.073    0.98E-04    0.18E-03    0.86E-07
   1      8    11.527     9.625    0.79E-04    0.15E-03    0.74E-07
   2      8    11.527     4.652    0.22E-03    0.72E-04    0.47E-07
 Optimization of the real space projectors (new method)

 maximal supplied QI-value         = 24.76
 optimisation between [QCUT,QGAM] = [ 11.64, 23.27] = [ 37.91,151.63] Ry 
 Optimized for a Real-space Cutoff    1.14 Angstroem

   l    n(q)    QCUT    max X(q) W(low)/X(q) W(high)/X(q)  e(spline) 
   0      8    11.635    20.381    0.10E-03    0.33E-03    0.24E-06
   0      8    11.635    15.268    0.11E-03    0.35E-03    0.26E-06
   1      7    11.635     5.964    0.24E-03    0.31E-03    0.30E-06
   1      7    11.635     5.382    0.22E-03    0.25E-03    0.26E-06
 Optimization of the real space projectors (new method)

 maximal supplied QI-value         = 34.20
 optimisation between [QCUT,QGAM] = [ 11.63, 23.26] = [ 37.87,151.49] Ry 
 Optimized for a Real-space Cutoff    1.21 Angstroem

   l    n(q)    QCUT    max X(q) W(low)/X(q) W(high)/X(q)  e(spline) 
   0      8    11.629    19.460    0.17E-03    0.34E-03    0.21E-06
   0      8    11.629    12.209    0.16E-03    0.33E-03    0.21E-06
   1      8    11.629     4.655    0.18E-03    0.16E-03    0.26E-06

 ----------------------------------------------------------------------------- 
|                                                                             |
|  ADVICE TO THIS USER RUNNING 'VASP/VAMP'   (HEAR YOUR MASTER'S VOICE ...):  |
|                                                                             |
|      You enforced a specific xc-type in the INCAR file,                     |
|      a different type was found on the POTCAR file                          |
|          I HOPE YOU KNOW, WHAT YOU ARE  DOING                               |
|                                                                             |
 ----------------------------------------------------------------------------- 

  PAW_PBE Mg 13Apr2007                  :
 energy of atom  1       EATOM=  -23.0369
 kinetic energy error for atom=    0.0000 (will be added to EATOM!!)
  PAW_PBE O 08Apr2002                   :
 energy of atom  2       EATOM= -432.3788
 kinetic energy error for atom=    0.0208 (will be added to EATOM!!)
  PAW_PBE H 15Jun2001                   :
 energy of atom  3       EATOM=  -12.4884
 kinetic energy error for atom=    0.0014 (will be added to EATOM!!)
 
 
 POSCAR: Mg   O    H                             
  positions in direct lattice
  velocities in cartesian coordinates
 exchange correlation table for  LEXCH =       42
   RHO(1)=    0.500       N(1)  =     2000
   RHO(2)=  100.500       N(2)  =     4000

 VTST: version 3.2, (02/03/18)

 CHAIN: initializing optimizer
 
 OPT: Using VASP Dynamics algorithm
 CHAIN: Read ICHAIN            0
 
 POSCAR: Mg   O    H                             
  positions in direct lattice
  velocities in cartesian coordinates
 


--------------------------------------------------------------------------------------------------------


 ion  position               nearest neighbor table
   1  0.000  0.000  0.000-   7 3.19  25 3.19  19 3.19  10 3.19   4 3.19  13 3.19  44 3.19  32 3.19
                            28 3.19
   2  1.000  1.000  0.158-  33 3.08  29 3.12  44 3.14  28 3.14  32 3.14  45 3.15  20 3.18   5 3.18
                            26 3.18  14 3.19  11 3.20   8 3.20
   3  0.001  0.002  0.330-  46 2.18  15 3.17  27 3.18  21 3.22  12 3.22   9 3.23   6 3.24  45 3.53
                            29 3.54  33 3.64
   4  0.000  0.333  0.000-  22 3.19  13 3.19  19 3.19  16 3.19   1 3.19   7 3.19  40 3.19  30 3.19
                            28 3.19
   5  0.000  0.333  0.157-  28 3.12  40 3.13  30 3.13  41 3.14  31 3.17  29 3.17   8 3.18   2 3.18
                            14 3.18  17 3.18  20 3.19  23 3.19
   6  0.996  0.332  0.310-  31 3.05  29 3.07  41 3.07  15 3.13  24 3.16  21 3.20   9 3.20  18 3.21
                             3 3.24
   7  0.000  0.667  0.000-   1 3.19  10 3.19  25 3.19  16 3.19  22 3.19   4 3.19  42 3.19  32 3.19
                            30 3.19
   8  0.999  0.665  0.157-  33 3.09  30 3.12  42 3.12  32 3.14  31 3.16  23 3.17  26 3.18   5 3.18
                            17 3.19   2 3.20  11 3.20  43 3.21
   9  0.003  0.670  0.313-  43 3.10  12 3.12  31 3.13  27 3.13  18 3.14  33 3.15   6 3.20   3 3.23
                            24 3.33
  10  0.333  0.000  0.000-  16 3.19   7 3.19  19 3.19   1 3.19  22 3.19  13 3.19  32 3.19  34 3.19
                            38 3.19
  11  0.334  1.000  0.157-  38 3.12  33 3.12  34 3.12  32 3.12  39 3.15  35 3.17  23 3.18  20 3.18
                            17 3.19  14 3.19   2 3.20   8 3.20
  12  0.328  0.997  0.308-  35 3.03  33 3.03  39 3.04   9 3.12  24 3.16   3 3.22  15 3.23  21 3.24
                            18 3.25
  13  0.333  0.333  0.000-  22 3.19   4 3.19  10 3.19   1 3.19  25 3.19  16 3.19  28 3.19  36 3.19
                            34 3.19
  14  0.334  0.333  0.158-  35 3.13  36 3.13  34 3.13  28 3.14  29 3.15  17 3.18  23 3.18   5 3.18
                            26 3.18  37 3.18   2 3.19  11 3.19
  15  0.324  0.333  0.313-  29 3.09  37 3.11   6 3.13  35 3.17   3 3.17  18 3.22  12 3.23  27 3.29
                            24 3.30
  16  0.333  0.667  0.000-  10 3.19  19 3.19   7 3.19  25 3.19   4 3.19  13 3.19  38 3.19  30 3.19
                            36 3.19
  17  0.333  0.666  0.158-  39 3.10  31 3.11  36 3.15  37 3.15  30 3.15  38 3.15  14 3.18  20 3.18
                             5 3.18  11 3.19   8 3.19  26 3.19
  18  0.322  0.664  0.330-  51 2.21   9 3.14   6 3.21  15 3.22  12 3.25  21 3.27  27 3.37  31 3.52
                            37 3.58  39 3.60
  19  0.667  0.000  0.000-  25 3.19  16 3.19   1 3.19  10 3.19   4 3.19  22 3.19  38 3.19  44 3.19
                            40 3.19
  20  0.666  0.998  0.157-  41 3.11  44 3.12  38 3.12  40 3.13  39 3.14   2 3.18  17 3.18  26 3.18
                            11 3.18   5 3.19  45 3.20  23 3.20
  21  0.665  0.995  0.313-  45 3.09  24 3.12  39 3.13  27 3.16  41 3.16   6 3.20   3 3.22  12 3.24
                            18 3.27
  22  0.667  0.333  0.000-  13 3.19   4 3.19  10 3.19  25 3.19   7 3.19  19 3.19  34 3.19  42 3.19
                            40 3.19
  23  0.666  0.333  0.158-  41 3.09  35 3.11  34 3.15  43 3.15  42 3.15  40 3.15   8 3.17  26 3.17
                            11 3.18  14 3.18   5 3.19  20 3.20
  24  0.661  0.318  0.322-  49 2.19  21 3.12  12 3.16   6 3.16  15 3.30  27 3.30   9 3.33  35 3.34
                            41 3.35  43 3.36
  25  0.667  0.667  0.000-   1 3.19  19 3.19   7 3.19  16 3.19  22 3.19  13 3.19  36 3.19  42 3.19
                            44 3.19
  26  0.667  0.666  0.158-  42 3.15  37 3.15  45 3.15  36 3.16  44 3.16  23 3.17   8 3.18  43 3.18
                            20 3.18   2 3.18  14 3.18  17 3.19
  27  0.675  0.670  0.315-  50 2.28  43 3.12  45 3.13   9 3.13  21 3.16   3 3.18  37 3.18  15 3.29
                            24 3.30  18 3.37
  28  0.111  0.222  0.080-   5 3.12  14 3.14   2 3.14  44 3.19  32 3.19  40 3.19  34 3.19  36 3.19
                            30 3.19   1 3.19  13 3.19   4 3.19
  29  0.110  0.218  0.236-   6 3.07  15 3.09   2 3.12  45 3.15  14 3.15  33 3.16   5 3.17  35 3.18
                            41 3.22  37 3.23  31 3.23   3 3.54
  30  0.111  0.556  0.080-   8 3.12   5 3.13  17 3.15  32 3.19  42 3.19  38 3.19  40 3.19  36 3.19
                            28 3.19  16 3.19   7 3.19   4 3.19
  31  0.115  0.558  0.236-   6 3.05  17 3.11   9 3.13  39 3.13  37 3.15   8 3.16   5 3.17  33 3.17
                            43 3.21  29 3.23  41 3.25  18 3.52
  32  0.111  0.889  0.080-  11 3.12   8 3.14   2 3.14  28 3.19  34 3.19  44 3.19  30 3.19  42 3.19
                            38 3.19  10 3.19   1 3.19   7 3.19
  33  0.108  0.886  0.234-  12 3.03   2 3.08   8 3.09  11 3.12  45 3.13   9 3.15  29 3.16  31 3.17
                            43 3.20  39 3.22  35 3.24   3 3.64
  34  0.444  0.222  0.080-  11 3.12  14 3.13  23 3.15  38 3.19  40 3.19  32 3.19  42 3.19  28 3.19
                            36 3.19  22 3.19  10 3.19  13 3.19
  35  0.446  0.225  0.236-  12 3.03  23 3.11  43 3.13  14 3.13  41 3.16  11 3.17  15 3.17  29 3.18
                            37 3.18  33 3.24  39 3.24  24 3.34
  36  0.444  0.556  0.080-  14 3.13  17 3.15  26 3.16  42 3.19  38 3.19  44 3.19  30 3.19  28 3.19
                            34 3.19  25 3.19  13 3.19  16 3.19
  37  0.445  0.558  0.237-  15 3.11  39 3.13  17 3.15  26 3.15  31 3.15  27 3.18  35 3.18  14 3.18
                            45 3.18  43 3.20  29 3.23  18 3.58
  38  0.444  0.889  0.080-  11 3.12  20 3.12  17 3.15  40 3.19  34 3.19  44 3.19  36 3.19  30 3.19
                            32 3.19  19 3.19  16 3.19  10 3.19
  39  0.444  0.885  0.235-  12 3.04  17 3.10  21 3.13  37 3.13  31 3.13  20 3.14  11 3.15  41 3.17
                            45 3.20  33 3.22  35 3.24  18 3.60
  40  0.778  0.222  0.080-   5 3.13  20 3.13  23 3.15  38 3.19  34 3.19  44 3.19  28 3.19  30 3.19
                            42 3.19   4 3.19  19 3.19  22 3.19
  41  0.774  0.219  0.234-   6 3.07  23 3.09  20 3.11   5 3.14  43 3.15  35 3.16  21 3.16  39 3.17
                            45 3.20  29 3.22  31 3.25  24 3.35
  42  0.778  0.556  0.080-   8 3.12  26 3.15  23 3.15  36 3.19  44 3.19  30 3.19  32 3.19  34 3.19
                            40 3.19  25 3.19   7 3.19  22 3.19
  43  0.776  0.550  0.238-   9 3.10  27 3.12  35 3.13  23 3.15  41 3.15  26 3.18  37 3.20  33 3.20
                             8 3.21  31 3.21  45 3.21  24 3.36
  44  0.778  0.889  0.080-  20 3.12   2 3.14  26 3.16  28 3.19  40 3.19  42 3.19  32 3.19  38 3.19
                            36 3.19   1 3.19  19 3.19  25 3.19
  45  0.781  0.888  0.237-  21 3.09  27 3.13  33 3.13  29 3.15   2 3.15  26 3.15  37 3.18  41 3.20
                            20 3.20  39 3.20  43 3.21   3 3.53
  46  0.991  0.008  0.396-  53 0.98  52 0.99   3 2.18
  47  0.277  0.972  0.412-  54 0.98  55 1.00
  48  0.895  0.250  0.411-  56 0.98  57 1.00
  49  0.638  0.322  0.389-  59 0.99  58 0.99  24 2.19
  50  0.618  0.599  0.383-  60 0.98  61 1.02  27 2.28
  51  0.300  0.693  0.397-  63 0.98  62 1.00  18 2.21
  52  0.971  0.091  0.408-  46 0.99
  53  0.082  0.010  0.411-  46 0.98
  54  0.382  0.073  0.412-  47 0.98
  55  0.246  0.958  0.382-  47 1.00
  56  0.995  0.355  0.408-  48 0.98
  57  0.863  0.216  0.382-  48 1.00
  58  0.643  0.425  0.395-  49 0.99
  59  0.726  0.317  0.404-  49 0.99
  60  0.651  0.699  0.398-  50 0.98
  61  0.502  0.555  0.373-  50 1.02
  62  0.299  0.792  0.406-  51 1.00
  63  0.356  0.666  0.417-  51 0.98
 
  LATTYP: Found a hexagonal cell.
 ALAT       =     9.5557527542
 C/A-ratio  =     3.4141837076
  
  Lattice vectors:
  
 A1 = (   9.5557527542,   0.0000000000,   0.0000000000)
 A2 = (  -4.7778763771,   8.2755246374,   0.0000000000)
 A3 = (   0.0000000000,   0.0000000000,  32.6250953674)


Analysis of symmetry for initial positions (statically):
=====================================================================
 Subroutine PRICEL returns:
 Original cell was already a primitive cell.
 

 Routine SETGRP: Setting up the symmetry group for a 
 hexagonal supercell.


 Subroutine GETGRP returns: Found  1 space group operations
 (whereof  1 operations were pure point group operations)
 out of a pool of 24 trial point group operations.


The static configuration has the point symmetry C_1 .


Analysis of symmetry for dynamics (positions and initial velocities):
=====================================================================
 Subroutine PRICEL returns:
 Original cell was already a primitive cell.
 

 Routine SETGRP: Setting up the symmetry group for a 
 hexagonal supercell.


 Subroutine GETGRP returns: Found  1 space group operations
 (whereof  1 operations were pure point group operations)
 out of a pool of 24 trial point group operations.


The dynamic configuration has the point symmetry C_1 .


Analysis of constrained symmetry for selective dynamics:
=====================================================================
 Subroutine PRICEL returns:
 Original cell was already a primitive cell.
 

 Routine SETGRP: Setting up the symmetry group for a 
 hexagonal supercell.


 Subroutine GETGRP returns: Found  1 space group operations
 (whereof  1 operations were pure point group operations)
 out of a pool of 24 trial point group operations.


The constrained configuration has the point symmetry C_1 .


 Subroutine INISYM returns: Found  1 space group operations
 (whereof  1 operations are pure point group operations),
 and found     1 'primitive' translations

 
 
 KPOINTS: Auto                                    

Automatic generation of k-mesh.
Space group operators:
 irot       det(A)        alpha          n_x          n_y          n_z        tau_x        tau_y        tau_z
    1     1.000000     0.000000     1.000000     0.000000     0.000000     0.000000     0.000000     0.000000
 
 Subroutine IBZKPT returns following result:
 ===========================================
 
 Found      5 irreducible k-points:
 
 Following reciprocal coordinates:
            Coordinates               Weight
  0.000000  0.000000  0.000000      1.000000
  0.333333 -0.000000  0.000000      2.000000
  0.000000  0.333333  0.000000      2.000000
  0.333333  0.333333  0.000000      2.000000
 -0.333333  0.333333  0.000000      2.000000
 
 Following cartesian coordinates:
            Coordinates               Weight
  0.000000  0.000000  0.000000      1.000000
  0.034883  0.020140  0.000000      2.000000
  0.000000  0.040279  0.000000      2.000000
  0.034883  0.060419  0.000000      2.000000
 -0.034883  0.020140  0.000000      2.000000
 
 TETIRR: Found     24 inequivalent tetrahedra from       54


--------------------------------------------------------------------------------------------------------




 Dimension of arrays:
   k-points           NKPTS =      5   k-points in BZ     NKDIM =      5   number of bands    NBANDS=    102
   number of dos      NEDOS =    301   number of ions     NIONS =     63
   non local maximal  LDIM  =      5   non local SUM 2l+1 LMDIM =     13
   total plane-waves  NPLWV = ******
   max r-space proj   IRMAX =   4509   max aug-charges    IRDMAX=  21536
   dimension x,y,z NGX =    72 NGY =   72 NGZ =  250
   dimension x,y,z NGXF=   144 NGYF=  144 NGZF=  500
   support grid    NGXF=   144 NGYF=  144 NGZF=  500
   ions per type =              45   6  12
   NGX,Y,Z   is equivalent  to a cutoff of  12.53, 12.53, 12.74 a.u.
   NGXF,Y,Z  is equivalent  to a cutoff of  25.05, 25.05, 25.48 a.u.

 SYSTEM =  Mg_slab_in_a_box                        
 POSCAR =  Mg   O    H                             

 Startparameter for this run:
   NWRITE =      2    write-flag & timer
   PREC   = accura    normal or accurate (medium, high low for compatibility)
   ISTART =      0    job   : 0-new  1-cont  2-samecut
   ICHARG =      2    charge: 1-file 2-atom 10-const
   ISPIN  =      1    spin polarized calculation?
   LNONCOLLINEAR =      F non collinear calculations
   LSORBIT =      F    spin-orbit coupling
   INIWAV =      1    electr: 0-lowe 1-rand  2-diag
   LASPH  =      T    aspherical Exc in radial PAW
   METAGGA=      F    non-selfconsistent MetaGGA calc.

 Electronic Relaxation 1
   ENCUT  =  520.0 eV  38.22 Ry    6.18 a.u.  17.77 17.77 60.66*2*pi/ulx,y,z
   ENINI  =  520.0     initial cutoff
   ENAUG  =  605.4 eV  augmentation charge cutoff
   NELM   =    300;   NELMIN=  6; NELMDL=-12     # of ELM steps 
   EDIFF  = 0.5E-05   stopping-criterion for ELM
   LREAL  =      T    real-space projection
   NLSPLINE    = F    spline interpolate recip. space projectors
   LCOMPAT=      F    compatible to vasp.4.4
   GGA_COMPAT  = T    GGA compatible to vasp.4.4-vasp.4.6
   LMAXPAW     = -100 max onsite density
   LMAXMIX     =    2 max onsite mixed and CHGCAR
   VOSKOWN=      0    Vosko Wilk Nusair interpolation
   ROPT   =   -0.00025  -0.00025  -0.00025
 Ionic relaxation
   EDIFFG = 0.5E-04   stopping-criterion for IOM
   NSW    =      0    number of steps for IOM
   NBLOCK =      1;   KBLOCK =      1    inner block; outer block 
   IBRION =     -1    ionic relax: 0-MD 1-quasi-New 2-CG
   NFREE  =      0    steps in history (QN), initial steepest desc. (CG)
   ISIF   =      2    stress and relaxation
   IWAVPR =     10    prediction:  0-non 1-charg 2-wave 3-comb
   ISYM   =      2    0-nonsym 1-usesym 2-fastsym
   LCORR  =      T    Harris-Foulkes like correction to forces

   POTIM  = 0.5000    time-step for ionic-motion
   TEIN   =    0.0    initial temperature
   TEBEG  =    0.0;   TEEND  =   0.0 temperature during run
   SMASS  =  -3.00    Nose mass-parameter (am)
   estimated Nose-frequenzy (Omega)   =  0.10E-29 period in steps =****** mass=  -0.209E-26a.u.
   SCALEE = 1.0000    scale energy and forces
   NPACO  =    256;   APACO  = 16.0  distance and # of slots for P.C.
   PSTRESS=    0.0 pullay stress

  Mass of Ions in am
   POMASS =  24.30 16.00  1.00
  Ionic Valenz
   ZVAL   =   2.00  6.00  1.00
  Atomic Wigner-Seitz radii
   RWIGS  =  -1.00 -1.00 -1.00
  virtual crystal weights 
   VCA    =   1.00  1.00  1.00
   NELECT =     138.0000    total number of electrons
   NUPDOWN=      -1.0000    fix difference up-down

 DOS related values:
   EMIN   =  10.00;   EMAX   =-10.00  energy-range for DOS
   EFERMI =   0.00
   ISMEAR =    -5;   SIGMA  =   0.20  broadening in eV -4-tet -1-fermi 0-gaus

 Electronic relaxation 2 (details)
   IALGO  =     48    algorithm
   LDIAG  =      T    sub-space diagonalisation (order eigenvalues)
   LSUBROT=      F    optimize rotation matrix (better conditioning)
   TURBO    =      0    0=normal 1=particle mesh
   IRESTART =      0    0=no restart 2=restart with 2 vectors
   NREBOOT  =      0    no. of reboots
   NMIN     =      0    reboot dimension
   EREF     =   0.00    reference energy to select bands
   IMIX   =      4    mixing-type and parameters
     AMIX     =   0.40;   BMIX     =  1.00
     AMIX_MAG =   1.60;   BMIX_MAG =  1.00
     AMIN     =   0.10
     WC   =   100.;   INIMIX=   1;  MIXPRE=   1;  MAXMIX= -45

 Intra band minimization:
   WEIMIN = 0.0000     energy-eigenvalue tresh-hold
   EBREAK =  0.12E-07  absolut break condition
   DEPER  =   0.30     relativ break condition  

   TIME   =   0.40     timestep for ELM

  volume/ion in A,a.u.               =      40.95       276.36
  Fermi-wavevector in a.u.,A,eV,Ry     =   0.616828  1.165635  5.176694  0.380476
  Thomas-Fermi vector in A             =   1.674695
 
 Write flags
   LWAVE        =      F    write WAVECAR
   LDOWNSAMPLE  =      F    k-point downsampling of WAVECAR
   LCHARG       =      T    write CHGCAR
   LVTOT        =      F    write LOCPOT, total local potential
   LVHAR        =      T    write LOCPOT, Hartree potential only
   LELF         =      F    write electronic localiz. function (ELF)
   LORBIT       =      0    0 simple, 1 ext, 2 COOP (PROOUT), +10 PAW based schemes


 Dipole corrections
   LMONO  =      F    monopole corrections only (constant potential shift)
   LDIPOL =      T    correct potential (dipole corrections)
   IDIPOL =      3    1-x, 2-y, 3-z, 4-all directions 
   EPSILON=  1.0000000 bulk dielectric constant

 Exchange correlation treatment:
   GGA     =    BO    GGA type
   LEXCH   =    42    internal setting for exchange type
   VOSKOWN=      0    Vosko Wilk Nusair interpolation
   LHFCALC =     F    Hartree Fock is set to
   LHFONE  =     F    Hartree Fock one center treatment
   AEXX    =    0.0000 exact exchange contribution

 vdW DFT:
   LUSE_VDW   =     T    switch on vdW DFT
   Zab_VDW    =-.8491    correlation parameter
   PARAM1     =0.1833
   PARAM2     =0.2200
   PARAM3     =0.0000
   -- rVV10 --
   BPARAM     = 6.3000
   CPARAM     = 0.0093

 Linear response parameters
   LEPSILON=     F    determine dielectric tensor
   LRPA    =     F    only Hartree local field effects (RPA)
   LNABLA  =     F    use nabla operator in PAW spheres
   LVEL    =     F    velocity operator in full k-point grid
   LINTERFAST=   F  fast interpolation
   KINTER  =     0    interpolate to denser k-point grid
   CSHIFT  =0.1000    complex shift for real part using Kramers Kronig
   OMEGAMAX=  -1.0    maximum frequency
   DEG_THRESHOLD= 0.2000000E-02 threshold for treating states as degnerate
   RTIME   =   -0.100 relaxation time in fs
  (WPLASMAI=    0.000 imaginary part of plasma frequency in eV, 0.658/RTIME)
   DFIELD  = 0.0000000 0.0000000 0.0000000 field for delta impulse in time
 
 Orbital magnetization related:
   ORBITALMAG=     F  switch on orbital magnetization
   LCHIMAG   =     F  perturbation theory with respect to B field
   DQ        =  0.001000  dq finite difference perturbation B field
   LLRAUG    =     F  two centre corrections for induced B field



--------------------------------------------------------------------------------------------------------


 Static calculation
 charge density and potential will be updated during run
 non-spin polarized calculation
 RMM-DIIS sequential band-by-band
 perform sub-space diagonalisation
    before iterative eigenvector-optimisation
 modified Broyden-mixing scheme, WC =      100.0
 initial mixing is a Kerker type mixing with AMIX =  0.4000 and BMIX =      1.0000
 Hartree-type preconditioning will be used
 using additional bands           33
 real space projection scheme for non local part
 use partial core corrections
 calculate Harris-corrections to forces 
   (improved forces if not selfconsistent)
 use gradient corrections 
 use of overlap-Matrix (Vanderbilt PP)
 Fermi weights with tetrahedron method with Bloechl corrections


--------------------------------------------------------------------------------------------------------


  energy-cutoff  :      520.00
  volume of cell :     2579.96
      direct lattice vectors                 reciprocal lattice vectors
     9.555752754  0.000000000  0.000000000     0.104649003  0.060419130  0.000000000
    -4.777876377  8.275524637  0.000000000     0.000000000  0.120838260  0.000000000
     0.000000000  0.000000000 32.625095367     0.000000000  0.000000000  0.030651251

  length of vectors
     9.555752754  9.555752754 32.625095367     0.120838260  0.120838260  0.030651251


 
 k-points in units of 2pi/SCALE and weight: Auto                                    
   0.00000000  0.00000000  0.00000000       0.111
   0.03488300  0.02013971  0.00000000       0.222
   0.00000000  0.04027942  0.00000000       0.222
   0.03488300  0.06041913  0.00000000       0.222
  -0.03488300  0.02013971  0.00000000       0.222
 
 k-points in reciprocal lattice and weights: Auto                                    
   0.00000000  0.00000000  0.00000000       0.111
   0.33333333 -0.00000000  0.00000000       0.222
   0.00000000  0.33333333  0.00000000       0.222
   0.33333333  0.33333333  0.00000000       0.222
  -0.33333333  0.33333333  0.00000000       0.222
 
 position of ions in fractional coordinates (direct lattice) 
   0.00000000  0.00000000  0.00000000
   0.99950246  0.99984916  0.15793135
   0.00073518  0.00208950  0.32961268
   0.00000001  0.33333336  0.00000000
   0.00024890  0.33282032  0.15737408
   0.99630881  0.33207080  0.30980494
   0.00000002  0.66666672  0.00000000
   0.99898313  0.66460687  0.15731243
   0.00259023  0.66973432  0.31300643
   0.33333334  0.00000000  0.00000000
   0.33403163  0.99987119  0.15710460
   0.32751755  0.99728173  0.30797920
   0.33333335  0.33333336  0.00000000
   0.33354361  0.33346128  0.15762686
   0.32449574  0.33291576  0.31330002
   0.33333336  0.66666672  0.00000000
   0.33335948  0.66598676  0.15821103
   0.32248510  0.66363569  0.33016693
   0.66666668  0.00000000  0.00000000
   0.66644575  0.99844432  0.15720850
   0.66480878  0.99507716  0.31290626
   0.66666668  0.33333336  0.00000000
   0.66630330  0.33320479  0.15824308
   0.66110860  0.31800814  0.32212712
   0.66666670  0.66666672  0.00000000
   0.66735317  0.66589110  0.15843395
   0.67489435  0.66968117  0.31512586
   0.11111113  0.22222222  0.07982145
   0.11033931  0.21767615  0.23580067
   0.11111114  0.55555561  0.07982145
   0.11548917  0.55804154  0.23578559
   0.11111116  0.88888894  0.07982145
   0.10798744  0.88637572  0.23352360
   0.44444450  0.22222222  0.07982145
   0.44645421  0.22537145  0.23551864
   0.44444450  0.55555561  0.07982145
   0.44530173  0.55791172  0.23690488
   0.44444451  0.88888894  0.07982145
   0.44423985  0.88512214  0.23513446
   0.77777779  0.22222222  0.07982145
   0.77392725  0.21911310  0.23446130
   0.77777781  0.55555561  0.07982145
   0.77574788  0.54993343  0.23758911
   0.77777784  0.88888894  0.07982145
   0.78118930  0.88845676  0.23693514
   0.99141534  0.00815999  0.39619636
   0.27692298  0.97174481  0.41174998
   0.89507143  0.25017864  0.41115727
   0.63843350  0.32154151  0.38882014
   0.61817684  0.59932718  0.38251324
   0.29979894  0.69286022  0.39665373
   0.97094046  0.09141797  0.40809408
   0.08207643  0.01015987  0.41107789
   0.38164910  0.07270335  0.41173490
   0.24632045  0.95753716  0.38199373
   0.99452681  0.35513592  0.40814389
   0.86344932  0.21635091  0.38189830
   0.64345979  0.42510723  0.39546197
   0.72557075  0.31662056  0.40386133
   0.65100566  0.69860704  0.39839395
   0.50193118  0.55532573  0.37310002
   0.29896032  0.79161455  0.40622361
   0.35614594  0.66623033  0.41749063
 
 position of ions in cartesian coordinates  (Angst):
   0.00000000  0.00000000  0.00000000
   4.77384266  8.27427639  5.15252541
  -0.00295820  0.01729168 10.75364515
  -1.59262550  2.75850844  0.00000000
  -1.58779587  2.75426276  5.13434453
   7.93388748  2.74806006 10.10741573
  -3.18525100  5.51701689  0.00000000
   6.37062632  5.49997056  5.13233318
  -3.17515621  5.54240291 10.21186473
   3.18525100  0.00000000  0.00000000
  -1.58533724  8.27445863  5.12555251
  -1.63521206  8.25302955 10.04785073
   1.59262550  2.75850844  0.00000000
   1.59402347  2.75956707  5.14259132
   1.51017076  2.75505254 10.22144318
  -0.00000001  5.51701689  0.00000000
   0.00349838  5.51138986  5.16165000
  -0.08918135  5.49193349 10.77172758
   6.37050200  0.00000000  0.00000000
   1.59794727  8.26265054  5.12894243
   1.59839271  8.23478551 10.20859664
   4.77787638  2.75850844  0.00000000
   4.77501825  2.75744449  5.16269558
   4.79798673  2.63168419 10.50942788
   3.18525100  5.51701689  0.00000000
   3.19551655  5.51059821  5.16892264
   3.24946968  5.54196301 10.28101117
   0.00000017  1.83900547  2.60418248
   0.01434542  1.80138430  7.69301948
  -1.59262550  4.59751415  2.60418248
  -1.56266759  4.61808655  7.69252743
  -3.18525076  7.35602236  2.60418248
  -3.20309230  7.33522410  7.61872977
   3.18525147  1.83900547  2.60418248
   3.18940919  1.86506695  7.68381823
   1.59262574  4.59751415  2.60418248
   1.58955996  4.61701220  7.72904441
   0.00000039  7.35602236  2.60418248
   0.01604206  7.32485006  7.67128413
   6.37050200  1.83900547  2.60418248
   6.34856214  1.81327584  7.64932225
   4.77787638  4.59751415  2.60418248
   4.78534103  4.55098767  7.75136728
   3.18525124  7.35602236  2.60418248
   3.21991518  7.35244585  7.73003140
   9.43473248  0.06752819 12.92594402
  -1.99666904  8.04169814 13.43338243
   7.35775869  2.07035953 13.41404521
   4.56442708  2.66092467 12.68529425
   3.04363389  4.95974684 12.47953081
  -0.44559595  5.73378184 12.94086578
   8.84128325  0.75653165 13.31410828
   0.73575951  0.08407825 13.41145538
   3.29957684  0.60165833 13.43289024
  -2.22121689  7.92412234 12.46258203
   7.80665680  2.93893603 13.31573344
   7.21721032  1.79041730 12.45946832
   4.11763284  3.51798537 12.90198453
   5.42060081  2.62020121 13.17601453
   2.88299104  5.78133974 12.99764054
   2.14305260  4.59561174 12.17242367
  -0.92544558  6.55102573 13.25308415
   0.22007639  5.51340553 13.62067146
 


--------------------------------------------------------------------------------------------------------


 k-point  1 :   0.0000 0.0000 0.0000  plane waves:   69403
 k-point  2 :   0.3333-0.0000 0.0000  plane waves:   69509
 k-point  3 :   0.0000 0.3333 0.0000  plane waves:   69509
 k-point  4 :   0.3333 0.3333 0.0000  plane waves:   69474
 k-point  5 :  -0.3333 0.3333 0.0000  plane waves:   69509

 maximum and minimum number of plane-waves per node :      2924     2870

 maximum number of plane-waves:     69509
 maximum index in each direction: 
   IXMAX=   18   IYMAX=   17   IZMAX=   60
   IXMIN=  -18   IYMIN=  -18   IZMIN=  -60


 real space projection operators:
  total allocation   :      22576.38 KBytes
  max/ min on nodes  :       1302.46        523.12


 parallel 3D FFT for wavefunctions:
    minimum data exchange during FFTs selected (reduces bandwidth)
 parallel 3D FFT for charge:
    minimum data exchange during FFTs selected (reduces bandwidth)


 total amount of memory used by VASP MPI-rank0    62217. kBytes
=======================================================================

   base      :      30000. kBytes
   nonlr-proj:       6314. kBytes
   fftplans  :       6459. kBytes
   grid      :      11407. kBytes
   one-center:         24. kBytes
   wavefun   :       8013. kBytes
 
     INWAV:  cpu time    0.0001: real time    0.0004
 Broyden mixing: mesh for mixing (old mesh)
   NGX = 35   NGY = 35   NGZ =121
  (NGX  =144   NGY  =144   NGZ  =500)
  gives a total of 148225 points

 initial charge density was supplied:
 charge density of overlapping atoms calculated
 number of electron     138.0000000 magnetization 
 keeping initial charge density in first step


--------------------------------------------------------------------------------------------------------


 Maximum index for non-local projection operator          297
 Maximum index for augmentation-charges          837 (set IRDMAX)


--------------------------------------------------------------------------------------------------------


 First call to EWALD:  gamma=   0.129
 Maximum number of real-space cells 4x 4x 1
 Maximum number of reciprocal cells 2x 2x 6

    FEWALD:  cpu time    0.0020: real time    0.0019


--------------------------------------- Iteration      1(   1)  ---------------------------------------


vdW kernel read from vdw_kernel.bindat
  0.0000  0.2424  0.5071  0.7962  1.1119  1.4567  1.8333  2.2446  2.6937  3.1842
  3.7199  4.3049  4.9438  5.6415  6.4036  7.2358  8.1446  9.1372 10.2212 11.4050
 12.6979 14.1099 15.6519 17.3360 19.1751 21.1837 23.3773 25.7729 28.3892 31.2465
 34.3669 37.7748 41.4965 45.5611 50.0000
 
    POTLOK:  cpu time    5.8326: real time    5.9724
    SETDIJ:  cpu time    0.1345: real time    0.1345
    EDDIAG:  cpu time    0.4805: real time    0.4833
  RMM-DIIS:  cpu time    1.0459: real time    1.0462
    ORTHCH:  cpu time    0.0712: real time    0.0712
 BZINTS: Fermi energy:  9.578485;138.000000 electrons
         Band energy: 212.044408;  BLOECHL correction: -0.164644
       DOS:  cpu time    0.0030: real time    0.0030
    --------------------------------------------
      LOOP:  cpu time    7.5677: real time    7.7106

 eigenvalue-minimisations  :   510
 total energy-change (2. order) : 0.1246495E+04  (-0.2793775E+04)
 number of electron     138.0000000 magnetization 
 augmentation part      138.0000000 magnetization 

 DIPCOR: dipole corrections for dipol
 direction  3 min pos   355,
 dipolmoment           0.000000      0.000000     -0.000398 electrons x Angstroem
 Tr[quadrupol]     -1881.183422

 energy correction for charged system         0.000000 eV
 dipol+quadrupol energy correction           -0.000000 eV
 added-field ion interaction          0.004233 eV  (added to PSCEN)


 Free energy of the ion-electron system (eV)
  ---------------------------------------------------
  alpha Z        PSCENC =        63.16529571
  Ewald energy   TEWEN  =     13034.84326206
  -Hartree energ DENC   =    -16257.05873685
  -exchange      EXHF   =         0.00000000
  -V(xc)+E(xc)   XCENC  =     -2050.63283606
  PAW double counting   =      5135.15659847    -2719.01140655
  entropy T*S    EENTRO =         0.00000000
  eigenvalues    EBANDS =       212.04440802
  atomic energy  EATOM  =      3827.98814510
  Solvation  Ediel_sol  =         0.00000000
  ---------------------------------------------------
  free energy    TOTEN  =      1246.49472991 eV

  energy without entropy =     1246.49472991  energy(sigma->0) =     1246.49472991


--------------------------------------------------------------------------------------------------------




--------------------------------------- Iteration      1(   2)  ---------------------------------------


    EDDIAG:  cpu time    0.4880: real time    0.5086
  RMM-DIIS:  cpu time    1.0470: real time    1.0472
    ORTHCH:  cpu time    0.0718: real time    0.0718
 BZINTS: Fermi energy:  2.118862;138.000000 electrons
         Band energy:-486.583969;  BLOECHL correction: -0.284930
       DOS:  cpu time    0.0031: real time    0.0031
    --------------------------------------------
      LOOP:  cpu time    1.6099: real time    1.6307

 eigenvalue-minimisations  :   510
 total energy-change (2. order) :-0.6986284E+03  (-0.7581397E+03)
 number of electron     138.0000000 magnetization 
 augmentation part      138.0000000 magnetization 

 DIPCOR: dipole corrections for dipol
 direction  3 min pos   355,
 dipolmoment           0.000000      0.000000     -0.000398 electrons x Angstroem
 Tr[quadrupol]     -1881.183422

 energy correction for charged system         0.000000 eV
 dipol+quadrupol energy correction           -0.000000 eV
 added-field ion interaction          0.004233 eV  (added to PSCEN)


 Free energy of the ion-electron system (eV)
  ---------------------------------------------------
  alpha Z        PSCENC =        63.16529571
  Ewald energy   TEWEN  =     13034.84326206
  -Hartree energ DENC   =    -16257.05873685
  -exchange      EXHF   =         0.00000000
  -V(xc)+E(xc)   XCENC  =     -2050.63283606
  PAW double counting   =      5135.15659847    -2719.01140655
  entropy T*S    EENTRO =         0.00000000
  eigenvalues    EBANDS =      -486.58396874
  atomic energy  EATOM  =      3827.98814510
  Solvation  Ediel_sol  =         0.00000000
  ---------------------------------------------------
  free energy    TOTEN  =       547.86635315 eV

  energy without entropy =      547.86635315  energy(sigma->0) =      547.86635315


--------------------------------------------------------------------------------------------------------




--------------------------------------- Iteration      1(   3)  ---------------------------------------


    EDDIAG:  cpu time    0.4870: real time    0.5124
  RMM-DIIS:  cpu time    1.0471: real time    1.0474
    ORTHCH:  cpu time    0.0716: real time    0.0717
 BZINTS: Fermi energy:  0.403351;138.000000 electrons
         Band energy:-722.116425;  BLOECHL correction: -0.449054
       DOS:  cpu time    0.0031: real time    0.0031
    --------------------------------------------
      LOOP:  cpu time    1.6088: real time    1.6346

 eigenvalue-minimisations  :   510
 total energy-change (2. order) :-0.2355325E+03  (-0.3006770E+03)
 number of electron     138.0000000 magnetization 
 augmentation part      138.0000000 magnetization 

 DIPCOR: dipole corrections for dipol
 direction  3 min pos   355,
 dipolmoment           0.000000      0.000000     -0.000398 electrons x Angstroem
 Tr[quadrupol]     -1881.183422

 energy correction for charged system         0.000000 eV
 dipol+quadrupol energy correction           -0.000000 eV
 added-field ion interaction          0.004233 eV  (added to PSCEN)


 Free energy of the ion-electron system (eV)
  ---------------------------------------------------
  alpha Z        PSCENC =        63.16529571
  Ewald energy   TEWEN  =     13034.84326206
  -Hartree energ DENC   =    -16257.05873685
  -exchange      EXHF   =         0.00000000
  -V(xc)+E(xc)   XCENC  =     -2050.63283606
  PAW double counting   =      5135.15659847    -2719.01140655
  entropy T*S    EENTRO =         0.00000000
  eigenvalues    EBANDS =      -722.11642516
  atomic energy  EATOM  =      3827.98814510
  Solvation  Ediel_sol  =         0.00000000
  ---------------------------------------------------
  free energy    TOTEN  =       312.33389673 eV

  energy without entropy =      312.33389673  energy(sigma->0) =      312.33389673


--------------------------------------------------------------------------------------------------------




--------------------------------------- Iteration      1(   4)  ---------------------------------------


    EDDIAG:  cpu time    0.4861: real time    0.5121
  RMM-DIIS:  cpu time    1.0465: real time    1.0467
    ORTHCH:  cpu time    0.0716: real time    0.0716
 BZINTS: Fermi energy: -0.724760;138.000000 electrons
         Band energy:-897.396463;  BLOECHL correction:  0.000000
       DOS:  cpu time    0.0008: real time    0.0008
    --------------------------------------------
      LOOP:  cpu time    1.6049: real time    1.6311

 eigenvalue-minimisations  :   510
 total energy-change (2. order) :-0.1752800E+03  (-0.1512230E+03)
 number of electron     138.0000000 magnetization 
 augmentation part      138.0000000 magnetization 

 DIPCOR: dipole corrections for dipol
 direction  3 min pos   355,
 dipolmoment           0.000000      0.000000     -0.000398 electrons x Angstroem
 Tr[quadrupol]     -1881.183422

 energy correction for charged system         0.000000 eV
 dipol+quadrupol energy correction           -0.000000 eV
 added-field ion interaction          0.004233 eV  (added to PSCEN)


 Free energy of the ion-electron system (eV)
  ---------------------------------------------------
  alpha Z        PSCENC =        63.16529571
  Ewald energy   TEWEN  =     13034.84326206
  -Hartree energ DENC   =    -16257.05873685
  -exchange      EXHF   =         0.00000000
  -V(xc)+E(xc)   XCENC  =     -2050.63283606
  PAW double counting   =      5135.15659847    -2719.01140655
  entropy T*S    EENTRO =         0.00000000
  eigenvalues    EBANDS =      -897.39646301
  atomic energy  EATOM  =      3827.98814510
  Solvation  Ediel_sol  =         0.00000000
  ---------------------------------------------------
  free energy    TOTEN  =       137.05385888 eV

  energy without entropy =      137.05385888  energy(sigma->0) =      137.05385888


--------------------------------------------------------------------------------------------------------




--------------------------------------- Iteration      1(   5)  ---------------------------------------


    EDDIAG:  cpu time    0.4858: real time    0.5105
  RMM-DIIS:  cpu time    1.0486: real time    1.0488
    ORTHCH:  cpu time    0.0730: real time    0.0730
 BZINTS: Fermi energy: -1.287373;138.000000 electrons
         Band energy:***********;  BLOECHL correction: -0.148540
       DOS:  cpu time    0.0032: real time    0.0032
    --------------------------------------------
      LOOP:  cpu time    1.6106: real time    1.6355

 eigenvalue-minimisations  :   510
 total energy-change (2. order) :-0.1173332E+03  (-0.9417188E+02)
 number of electron     138.0000000 magnetization 
 augmentation part      138.0000000 magnetization 

 DIPCOR: dipole corrections for dipol
 direction  3 min pos   355,
 dipolmoment           0.000000      0.000000     -0.000398 electrons x Angstroem
 Tr[quadrupol]     -1881.183422

 energy correction for charged system         0.000000 eV
 dipol+quadrupol energy correction           -0.000000 eV
 added-field ion interaction          0.004233 eV  (added to PSCEN)


 Free energy of the ion-electron system (eV)
  ---------------------------------------------------
  alpha Z        PSCENC =        63.16529571
  Ewald energy   TEWEN  =     13034.84326206
  -Hartree energ DENC   =    -16257.05873685
  -exchange      EXHF   =         0.00000000
  -V(xc)+E(xc)   XCENC  =     -2050.63283606
  PAW double counting   =      5135.15659847    -2719.01140655
  entropy T*S    EENTRO =         0.00000000
  eigenvalues    EBANDS =     -1014.72964478
  atomic energy  EATOM  =      3827.98814510
  Solvation  Ediel_sol  =         0.00000000
  ---------------------------------------------------
  free energy    TOTEN  =        19.72067711 eV

  energy without entropy =       19.72067711  energy(sigma->0) =       19.72067711


--------------------------------------------------------------------------------------------------------




--------------------------------------- Iteration      1(   6)  ---------------------------------------


    EDDIAG:  cpu time    0.4926: real time    0.5176
  RMM-DIIS:  cpu time    1.0575: real time    1.0578
    ORTHCH:  cpu time    0.0721: real time    0.0721
 BZINTS: Fermi energy: -1.359548;138.000000 electrons
         Band energy:***********;  BLOECHL correction: -0.059653
       DOS:  cpu time    0.0030: real time    0.0030
    --------------------------------------------
      LOOP:  cpu time    1.6252: real time    1.6505

 eigenvalue-minimisations  :   510
 total energy-change (2. order) :-0.6385972E+02  (-0.4846956E+02)
 number of electron     138.0000000 magnetization 
 augmentation part      138.0000000 magnetization 

 DIPCOR: dipole corrections for dipol
 direction  3 min pos   355,
 dipolmoment           0.000000      0.000000     -0.000398 electrons x Angstroem
 Tr[quadrupol]     -1881.183422

 energy correction for charged system         0.000000 eV
 dipol+quadrupol energy correction           -0.000000 eV
 added-field ion interaction          0.004233 eV  (added to PSCEN)


 Free energy of the ion-electron system (eV)
  ---------------------------------------------------
  alpha Z        PSCENC =        63.16529571
  Ewald energy   TEWEN  =     13034.84326206
  -Hartree energ DENC   =    -16257.05873685
  -exchange      EXHF   =         0.00000000
  -V(xc)+E(xc)   XCENC  =     -2050.63283606
  PAW double counting   =      5135.15659847    -2719.01140655
  entropy T*S    EENTRO =         0.00000000
  eigenvalues    EBANDS =     -1078.58936748
  atomic energy  EATOM  =      3827.98814510
  Solvation  Ediel_sol  =         0.00000000
  ---------------------------------------------------
  free energy    TOTEN  =       -44.13904559 eV

  energy without entropy =      -44.13904559  energy(sigma->0) =      -44.13904559


--------------------------------------------------------------------------------------------------------




--------------------------------------- Iteration      1(   7)  ---------------------------------------


    EDDIAG:  cpu time    0.4855: real time    0.5125
  RMM-DIIS:  cpu time    1.0522: real time    1.0523
    ORTHCH:  cpu time    0.0712: real time    0.0712
 BZINTS: Fermi energy: -1.419938;138.000000 electrons
         Band energy:***********;  BLOECHL correction: -0.072754
       DOS:  cpu time    0.0036: real time    0.0036
    --------------------------------------------
      LOOP:  cpu time    1.6124: real time    1.6395

 eigenvalue-minimisations  :   510
 total energy-change (2. order) :-0.2489103E+02  (-0.1907813E+02)
 number of electron     138.0000000 magnetization 
 augmentation part      138.0000000 magnetization 

 DIPCOR: dipole corrections for dipol
 direction  3 min pos   355,
 dipolmoment           0.000000      0.000000     -0.000398 electrons x Angstroem
 Tr[quadrupol]     -1881.183422

 energy correction for charged system         0.000000 eV
 dipol+quadrupol energy correction           -0.000000 eV
 added-field ion interaction          0.004233 eV  (added to PSCEN)


 Free energy of the ion-electron system (eV)
  ---------------------------------------------------
  alpha Z        PSCENC =        63.16529571
  Ewald energy   TEWEN  =     13034.84326206
  -Hartree energ DENC   =    -16257.05873685
  -exchange      EXHF   =         0.00000000
  -V(xc)+E(xc)   XCENC  =     -2050.63283606
  PAW double counting   =      5135.15659847    -2719.01140655
  entropy T*S    EENTRO =         0.00000000
  eigenvalues    EBANDS =     -1103.48039889
  atomic energy  EATOM  =      3827.98814510
  Solvation  Ediel_sol  =         0.00000000
  ---------------------------------------------------
  free energy    TOTEN  =       -69.03007700 eV

  energy without entropy =      -69.03007700  energy(sigma->0) =      -69.03007700


--------------------------------------------------------------------------------------------------------




--------------------------------------- Iteration      1(   8)  ---------------------------------------


    EDDIAG:  cpu time    0.4814: real time    0.5077
  RMM-DIIS:  cpu time    1.0497: real time    1.0500
    ORTHCH:  cpu time    0.0714: real time    0.0714
 BZINTS: Fermi energy: -1.452458;138.000000 electrons
         Band energy:***********;  BLOECHL correction: -0.089245
       DOS:  cpu time    0.0031: real time    0.0031
    --------------------------------------------
      LOOP:  cpu time    1.6056: real time    1.6321

 eigenvalue-minimisations  :   510
 total energy-change (2. order) :-0.6557695E+01  (-0.5420403E+01)
 number of electron     138.0000000 magnetization 
 augmentation part      138.0000000 magnetization 

 DIPCOR: dipole corrections for dipol
 direction  3 min pos   355,
 dipolmoment           0.000000      0.000000     -0.000398 electrons x Angstroem
 Tr[quadrupol]     -1881.183422

 energy correction for charged system         0.000000 eV
 dipol+quadrupol energy correction           -0.000000 eV
 added-field ion interaction          0.004233 eV  (added to PSCEN)


 Free energy of the ion-electron system (eV)
  ---------------------------------------------------
  alpha Z        PSCENC =        63.16529571
  Ewald energy   TEWEN  =     13034.84326206
  -Hartree energ DENC   =    -16257.05873685
  -exchange      EXHF   =         0.00000000
  -V(xc)+E(xc)   XCENC  =     -2050.63283606
  PAW double counting   =      5135.15659847    -2719.01140655
  entropy T*S    EENTRO =         0.00000000
  eigenvalues    EBANDS =     -1110.03809418
  atomic energy  EATOM  =      3827.98814510
  Solvation  Ediel_sol  =         0.00000000
  ---------------------------------------------------
  free energy    TOTEN  =       -75.58777229 eV

  energy without entropy =      -75.58777229  energy(sigma->0) =      -75.58777229


--------------------------------------------------------------------------------------------------------




--------------------------------------- Iteration      1(   9)  ---------------------------------------


    EDDIAG:  cpu time    0.4850: real time    0.5100
  RMM-DIIS:  cpu time    2.7971: real time    2.7979
    ORTHCH:  cpu time    0.0715: real time    0.0715
 BZINTS: Fermi energy: -1.484380;138.000000 electrons
         Band energy:***********;  BLOECHL correction: -0.088666
       DOS:  cpu time    0.0029: real time    0.0029
    --------------------------------------------
      LOOP:  cpu time    3.3565: real time    3.3823

 eigenvalue-minimisations  :  1527
 total energy-change (2. order) :-0.2158142E+01  (-0.2078522E+01)
 number of electron     138.0000000 magnetization 
 augmentation part      138.0000000 magnetization 

 DIPCOR: dipole corrections for dipol
 direction  3 min pos   355,
 dipolmoment           0.000000      0.000000     -0.000398 electrons x Angstroem
 Tr[quadrupol]     -1881.183422

 energy correction for charged system         0.000000 eV
 dipol+quadrupol energy correction           -0.000000 eV
 added-field ion interaction          0.004233 eV  (added to PSCEN)


 Free energy of the ion-electron system (eV)
  ---------------------------------------------------
  alpha Z        PSCENC =        63.16529571
  Ewald energy   TEWEN  =     13034.84326206
  -Hartree energ DENC   =    -16257.05873685
  -exchange      EXHF   =         0.00000000
  -V(xc)+E(xc)   XCENC  =     -2050.63283606
  PAW double counting   =      5135.15659847    -2719.01140655
  entropy T*S    EENTRO =         0.00000000
  eigenvalues    EBANDS =     -1112.19623606
  atomic energy  EATOM  =      3827.98814510
  Solvation  Ediel_sol  =         0.00000000
  ---------------------------------------------------
  free energy    TOTEN  =       -77.74591417 eV

  energy without entropy =      -77.74591417  energy(sigma->0) =      -77.74591417


--------------------------------------------------------------------------------------------------------




--------------------------------------- Iteration      1(  10)  ---------------------------------------


    EDDIAG:  cpu time    0.4879: real time    0.5099
  RMM-DIIS:  cpu time    3.2209: real time    3.2235
    ORTHCH:  cpu time    0.0713: real time    0.0713
 BZINTS: Fermi energy: -1.486229;138.000000 electrons
         Band energy:***********;  BLOECHL correction: -0.088366
       DOS:  cpu time    0.0028: real time    0.0028
    --------------------------------------------
      LOOP:  cpu time    3.7830: real time    3.8075

 eigenvalue-minimisations  :  1782
 total energy-change (2. order) :-0.2963150E+00  (-0.3008838E+00)
 number of electron     138.0000000 magnetization 
 augmentation part      138.0000000 magnetization 

 DIPCOR: dipole corrections for dipol
 direction  3 min pos   355,
 dipolmoment           0.000000      0.000000     -0.000398 electrons x Angstroem
 Tr[quadrupol]     -1881.183422

 energy correction for charged system         0.000000 eV
 dipol+quadrupol energy correction           -0.000000 eV
 added-field ion interaction          0.004233 eV  (added to PSCEN)


 Free energy of the ion-electron system (eV)
  ---------------------------------------------------
  alpha Z        PSCENC =        63.16529571
  Ewald energy   TEWEN  =     13034.84326206
  -Hartree energ DENC   =    -16257.05873685
  -exchange      EXHF   =         0.00000000
  -V(xc)+E(xc)   XCENC  =     -2050.63283606
  PAW double counting   =      5135.15659847    -2719.01140655
  entropy T*S    EENTRO =         0.00000000
  eigenvalues    EBANDS =     -1112.49255107
  atomic energy  EATOM  =      3827.98814510
  Solvation  Ediel_sol  =         0.00000000
  ---------------------------------------------------
  free energy    TOTEN  =       -78.04222919 eV

  energy without entropy =      -78.04222919  energy(sigma->0) =      -78.04222919


--------------------------------------------------------------------------------------------------------




--------------------------------------- Iteration      1(  11)  ---------------------------------------


    EDDIAG:  cpu time    0.4871: real time    0.5098
  RMM-DIIS:  cpu time    3.1617: real time    3.1625
    ORTHCH:  cpu time    0.0717: real time    0.0717
 BZINTS: Fermi energy: -1.486609;138.000000 electrons
         Band energy:***********;  BLOECHL correction: -0.088297
       DOS:  cpu time    0.0032: real time    0.0032
    --------------------------------------------
      LOOP:  cpu time    3.7236: real time    3.7473

 eigenvalue-minimisations  :  1751
 total energy-change (2. order) :-0.4620180E-02  (-0.1776806E-01)
 number of electron     138.0000000 magnetization 
 augmentation part      138.0000000 magnetization 

 DIPCOR: dipole corrections for dipol
 direction  3 min pos   355,
 dipolmoment           0.000000      0.000000     -0.000398 electrons x Angstroem
 Tr[quadrupol]     -1881.183422

 energy correction for charged system         0.000000 eV
 dipol+quadrupol energy correction           -0.000000 eV
 added-field ion interaction          0.004233 eV  (added to PSCEN)


 Free energy of the ion-electron system (eV)
  ---------------------------------------------------
  alpha Z        PSCENC =        63.16529571
  Ewald energy   TEWEN  =     13034.84326206
  -Hartree energ DENC   =    -16257.05873685
  -exchange      EXHF   =         0.00000000
  -V(xc)+E(xc)   XCENC  =     -2050.63283606
  PAW double counting   =      5135.15659847    -2719.01140655
  entropy T*S    EENTRO =         0.00000000
  eigenvalues    EBANDS =     -1112.49717125
  atomic energy  EATOM  =      3827.98814510
  Solvation  Ediel_sol  =         0.00000000
  ---------------------------------------------------
  free energy    TOTEN  =       -78.04684937 eV

  energy without entropy =      -78.04684937  energy(sigma->0) =      -78.04684937


--------------------------------------------------------------------------------------------------------




--------------------------------------- Iteration      1(  12)  ---------------------------------------


    EDDIAG:  cpu time    0.4897: real time    0.5102
  RMM-DIIS:  cpu time    3.2665: real time    3.2672
    ORTHCH:  cpu time    0.0723: real time    0.0723
 BZINTS: Fermi energy: -1.486642;138.000000 electrons
         Band energy:***********;  BLOECHL correction: -0.088302
       DOS:  cpu time    0.0029: real time    0.0029
    CHARGE:  cpu time    0.1251: real time    0.1252
    MIXING:  cpu time    0.0049: real time    0.0050
    --------------------------------------------
      LOOP:  cpu time    3.9614: real time    3.9827

 eigenvalue-minimisations  :  1804
 total energy-change (2. order) :-0.2928403E-02  (-0.3533258E-02)
 number of electron     137.9999995 magnetization 
 augmentation part        5.2019604 magnetization 

 DIPCOR: dipole corrections for dipol
 direction  3 min pos   355,
 dipolmoment           0.000000      0.000000     -0.000398 electrons x Angstroem
 Tr[quadrupol]     -1881.183422

 energy correction for charged system         0.000000 eV
 dipol+quadrupol energy correction           -0.000000 eV
 added-field ion interaction          0.004233 eV  (added to PSCEN)


 Broyden mixing:
  rms(total) = 0.19372E+01    rms(broyden)= 0.19361E+01
  rms(prec ) = 0.20314E+01
  weight for this iteration     100.00

 Free energy of the ion-electron system (eV)
  ---------------------------------------------------
  alpha Z        PSCENC =        63.16529571
  Ewald energy   TEWEN  =     13034.84326206
  -Hartree energ DENC   =    -16257.05873685
  -exchange      EXHF   =         0.00000000
  -V(xc)+E(xc)   XCENC  =     -2050.63283606
  PAW double counting   =      5135.15659847    -2719.01140655
  entropy T*S    EENTRO =         0.00000000
  eigenvalues    EBANDS =     -1112.50009966
  atomic energy  EATOM  =      3827.98814510
  Solvation  Ediel_sol  =         0.00000000
  ---------------------------------------------------
  free energy    TOTEN  =       -78.04977777 eV

  energy without entropy =      -78.04977777  energy(sigma->0) =      -78.04977777


--------------------------------------------------------------------------------------------------------




--------------------------------------- Iteration      1(  13)  ---------------------------------------


    POTLOK:  cpu time    5.1537: real time    5.1791
    SETDIJ:  cpu time    0.1363: real time    0.1363
    EDDIAG:  cpu time    0.4808: real time    0.4814
  RMM-DIIS:  cpu time    2.5919: real time    2.5925
    ORTHCH:  cpu time    0.0714: real time    0.0714
 BZINTS: Fermi energy: -0.995297;138.000000 electrons
         Band energy:-938.372709;  BLOECHL correction: -0.090449
       DOS:  cpu time    0.0031: real time    0.0031
    CHARGE:  cpu time    0.1260: real time    0.1260
    MIXING:  cpu time    0.0056: real time    0.0056
    --------------------------------------------
      LOOP:  cpu time    8.5688: real time    8.5954

 eigenvalue-minimisations  :  1437
 total energy-change (2. order) : 0.9773921E+01  (-0.5580784E+01)
 number of electron     137.9999995 magnetization 
 augmentation part        4.4752443 magnetization 

 DIPCOR: dipole corrections for dipol
 direction  3 min pos   361,
 dipolmoment           0.000000      0.000000      0.181856 electrons x Angstroem
 Tr[quadrupol]     -1893.259889

 energy correction for charged system         0.000000 eV
 dipol+quadrupol energy correction           -0.001160 eV
 added-field ion interaction         -1.243011 eV  (added to PSCEN)


 Broyden mixing:
  rms(total) = 0.74837E+00    rms(broyden)= 0.74788E+00
  rms(prec ) = 0.83013E+00
  weight for this iteration     100.00

 eigenvalues of (default mixing * dielectric matrix)
  average eigenvalue GAMMA=   0.9675
  0.9675

 Free energy of the ion-electron system (eV)
  ---------------------------------------------------
  alpha Z        PSCENC =        61.91689266
  Ewald energy   TEWEN  =     13034.84326206
  -Hartree energ DENC   =    -16427.05439197
  -exchange      EXHF   =         0.00000000
  -V(xc)+E(xc)   XCENC  =     -2041.25254883
  PAW double counting   =      5559.24551259    -3145.59001967
  entropy T*S    EENTRO =         0.00000000
  eigenvalues    EBANDS =      -938.37270893
  atomic energy  EATOM  =      3827.98814510
  Solvation  Ediel_sol  =         0.00000000
  ---------------------------------------------------
  free energy    TOTEN  =       -68.27585698 eV

  energy without entropy =      -68.27585698  energy(sigma->0) =      -68.27585698


--------------------------------------------------------------------------------------------------------




--------------------------------------- Iteration      1(  14)  ---------------------------------------


    POTLOK:  cpu time    5.1302: real time    5.1541
    SETDIJ:  cpu time    0.1360: real time    0.1360
    EDDIAG:  cpu time    0.4744: real time    0.4749
  RMM-DIIS:  cpu time    2.8971: real time    2.8976
    ORTHCH:  cpu time    0.0709: real time    0.0709
 BZINTS: Fermi energy: -0.785931;138.000000 electrons
         Band energy:-966.883711;  BLOECHL correction: -0.149586
       DOS:  cpu time    0.0028: real time    0.0028
    CHARGE:  cpu time    0.1271: real time    0.1272
    MIXING:  cpu time    0.0056: real time    0.0056
    --------------------------------------------
      LOOP:  cpu time    8.8442: real time    8.8692

 eigenvalue-minimisations  :  1585
 total energy-change (2. order) :-0.7725391E+01  (-0.3744205E+00)
 number of electron     137.9999995 magnetization 
 augmentation part        4.4148596 magnetization 

 DIPCOR: dipole corrections for dipol
 direction  3 min pos   376,
 dipolmoment           0.000000      0.000000     -1.312407 electrons x Angstroem
 Tr[quadrupol]     -1884.756749

 energy correction for charged system         0.000000 eV
 dipol+quadrupol energy correction           -0.060403 eV
 added-field ion interaction         -3.462408 eV  (added to PSCEN)


 Broyden mixing:
  rms(total) = 0.69844E+00    rms(broyden)= 0.69841E+00
  rms(prec ) = 0.17604E+01
  weight for this iteration     100.00

 eigenvalues of (default mixing * dielectric matrix)
  average eigenvalue GAMMA=   1.0070
  1.0070  1.0070

 Free energy of the ion-electron system (eV)
  ---------------------------------------------------
  alpha Z        PSCENC =        59.63825217
  Ewald energy   TEWEN  =     13034.84326206
  -Hartree energ DENC   =    -16406.03339760
  -exchange      EXHF   =         0.00000000
  -V(xc)+E(xc)   XCENC  =     -2039.15482523
  PAW double counting   =      5737.26403002    -3323.66300389
  entropy T*S    EENTRO =         0.00000000
  eigenvalues    EBANDS =      -966.88371070
  atomic energy  EATOM  =      3827.98814510
  Solvation  Ediel_sol  =         0.00000000
  ---------------------------------------------------
  free energy    TOTEN  =       -76.00124806 eV

  energy without entropy =      -76.00124806  energy(sigma->0) =      -76.00124806


--------------------------------------------------------------------------------------------------------




--------------------------------------- Iteration      1(  15)  ---------------------------------------


    POTLOK:  cpu time    4.9259: real time    4.9535
    SETDIJ:  cpu time    0.1355: real time    0.1355
    EDDIAG:  cpu time    0.4752: real time    0.4757
  RMM-DIIS:  cpu time    2.6337: real time    2.6342
    ORTHCH:  cpu time    0.0716: real time    0.0716
 BZINTS: Fermi energy: -1.037869;138.000000 electrons
         Band energy:-922.531247;  BLOECHL correction: -0.123197
       DOS:  cpu time    0.0028: real time    0.0028
    CHARGE:  cpu time    0.1258: real time    0.1258
    MIXING:  cpu time    0.0036: real time    0.0036
    --------------------------------------------
      LOOP:  cpu time    8.3740: real time    8.4027

 eigenvalue-minimisations  :  1435
 total energy-change (2. order) : 0.7673460E+01  (-0.1423869E+00)
 number of electron     137.9999995 magnetization 
 augmentation part        4.3520536 magnetization 

 DIPCOR: dipole corrections for dipol
 direction  3 min pos   385,
 dipolmoment           0.000000      0.000000      0.066604 electrons x Angstroem
 Tr[quadrupol]     -1893.256439

 energy correction for charged system         0.000000 eV
 dipol+quadrupol energy correction           -0.000156 eV
 added-field ion interaction          0.554291 eV  (added to PSCEN)


 Broyden mixing:
  rms(total) = 0.50474E+00    rms(broyden)= 0.50471E+00
  rms(prec ) = 0.69042E+00
  weight for this iteration     100.00

 eigenvalues of (default mixing * dielectric matrix)
  average eigenvalue GAMMA=   1.1353
  2.0726  1.1867  0.1467

 Free energy of the ion-electron system (eV)
  ---------------------------------------------------
  alpha Z        PSCENC =        63.71519870
  Ewald energy   TEWEN  =     13034.84326206
  -Hartree energ DENC   =    -16447.12838897
  -exchange      EXHF   =         0.00000000
  -V(xc)+E(xc)   XCENC  =     -2038.82929033
  PAW double counting   =      5765.62063343    -3352.00610112
  entropy T*S    EENTRO =         0.00000000
  eigenvalues    EBANDS =      -922.53124685
  atomic energy  EATOM  =      3827.98814510
  Solvation  Ediel_sol  =         0.00000000
  ---------------------------------------------------
  free energy    TOTEN  =       -68.32778797 eV

  energy without entropy =      -68.32778797  energy(sigma->0) =      -68.32778797


--------------------------------------------------------------------------------------------------------




--------------------------------------- Iteration      1(  16)  ---------------------------------------


    POTLOK:  cpu time    4.9263: real time    4.9509
    SETDIJ:  cpu time    0.1365: real time    0.1366
    EDDIAG:  cpu time    0.4778: real time    0.4782
  RMM-DIIS:  cpu time    2.8581: real time    2.8629
    ORTHCH:  cpu time    0.0709: real time    0.0709
 BZINTS: Fermi energy: -0.711157;138.000000 electrons
         Band energy:-906.741928;  BLOECHL correction: -0.112359
       DOS:  cpu time    0.0031: real time    0.0031
    CHARGE:  cpu time    0.1256: real time    0.1256
    MIXING:  cpu time    0.0046: real time    0.0046
    --------------------------------------------
      LOOP:  cpu time    8.6028: real time    8.6328

 eigenvalue-minimisations  :  1502
 total energy-change (2. order) : 0.6184496E+00  (-0.1094363E+00)
 number of electron     137.9999995 magnetization 
 augmentation part        4.4344288 magnetization 

 DIPCOR: dipole corrections for dipol
 direction  3 min pos   390,
 dipolmoment           0.000000      0.000000     -0.278167 electrons x Angstroem
 Tr[quadrupol]     -1896.602792

 energy correction for charged system         0.000000 eV
 dipol+quadrupol energy correction           -0.002713 eV
 added-field ion interaction         -3.193358 eV  (added to PSCEN)


 Broyden mixing:
  rms(total) = 0.21181E+00    rms(broyden)= 0.21179E+00
  rms(prec ) = 0.26937E+00
  weight for this iteration     100.00

 eigenvalues of (default mixing * dielectric matrix)
  average eigenvalue GAMMA=   1.0665
  2.4543  1.0241  0.6369  0.1507

 Free energy of the ion-electron system (eV)
  ---------------------------------------------------
  alpha Z        PSCENC =        59.96499143
  Ewald energy   TEWEN  =     13034.84326206
  -Hartree energ DENC   =    -16459.97991120
  -exchange      EXHF   =         0.00000000
  -V(xc)+E(xc)   XCENC  =     -2037.59175793
  PAW double counting   =      5893.31247398    -3479.50461400
  entropy T*S    EENTRO =         0.00000000
  eigenvalues    EBANDS =      -906.74192783
  atomic energy  EATOM  =      3827.98814510
  Solvation  Ediel_sol  =         0.00000000
  ---------------------------------------------------
  free energy    TOTEN  =       -67.70933837 eV

  energy without entropy =      -67.70933837  energy(sigma->0) =      -67.70933837


--------------------------------------------------------------------------------------------------------




--------------------------------------- Iteration      1(  17)  ---------------------------------------


    POTLOK:  cpu time    4.9278: real time    4.9529
    SETDIJ:  cpu time    0.1353: real time    0.1354
    EDDIAG:  cpu time    0.4743: real time    0.4748
  RMM-DIIS:  cpu time    2.4689: real time    2.4712
    ORTHCH:  cpu time    0.0709: real time    0.0709
 BZINTS: Fermi energy: -0.672874;138.000000 electrons
         Band energy:-897.871150;  BLOECHL correction: -0.098624
       DOS:  cpu time    0.0031: real time    0.0031
    CHARGE:  cpu time    0.1271: real time    0.1271
    MIXING:  cpu time    0.0040: real time    0.0040
    --------------------------------------------
      LOOP:  cpu time    8.2113: real time    8.2393

 eigenvalue-minimisations  :  1335
 total energy-change (2. order) : 0.1426407E+00  (-0.3167139E-01)
 number of electron     137.9999995 magnetization 
 augmentation part        4.4375671 magnetization 

 DIPCOR: dipole corrections for dipol
 direction  3 min pos   388,
 dipolmoment           0.000000      0.000000     -0.448865 electrons x Angstroem
 Tr[quadrupol]     -1896.014323

 energy correction for charged system         0.000000 eV
[...]
  0.014  -0.001   0.000   0.054   0.000  -0.000  -0.003  -0.000  -0.000   0.000   0.011  -0.000  -0.000
  0.001   0.000  -0.001   0.000   0.076   0.000  -0.000  -0.004  -0.003  -0.000  -0.000   0.004   0.000
  0.000   0.000  -0.004  -0.000   0.000   0.000   0.000  -0.000  -0.000  -0.000  -0.000   0.000   0.000
 -0.003   0.000  -0.000  -0.003  -0.000   0.000   0.000   0.000   0.000  -0.000  -0.001   0.000   0.000
 -0.000  -0.000   0.000  -0.000  -0.004  -0.000   0.000   0.000   0.000   0.000   0.000  -0.000  -0.000
  0.002   0.000   0.000  -0.000  -0.003  -0.000   0.000   0.000   0.004   0.000   0.000  -0.000  -0.000
 -0.000  -0.000   0.004   0.000  -0.000  -0.000  -0.000   0.000   0.000   0.002   0.000   0.000  -0.000
 -0.021   0.000   0.000   0.011  -0.000  -0.000  -0.001   0.000   0.000   0.000   0.004  -0.000  -0.000
  0.000   0.000  -0.000  -0.000   0.004   0.000   0.000  -0.000  -0.000   0.000  -0.000   0.002   0.000
 -0.002  -0.000  -0.002  -0.000   0.000   0.000   0.000  -0.000  -0.000  -0.000  -0.000   0.000   0.004


------------------------ aborting loop because EDIFF is reached ----------------------------------------


    CHARGE:  cpu time    0.3645: real time    0.3646
    FORLOC:  cpu time    0.0387: real time    0.0387
    FORNL :  cpu time    0.6869: real time    0.6871
    STRESS:  cpu time    2.0740: real time    2.0744
    FORCOR:  cpu time    5.0342: real time    5.0354
    FORHAR:  cpu time    0.0767: real time    0.0767
    MIXING:  cpu time    0.0060: real time    0.0060
    OFIELD:  cpu time    0.0001: real time    0.0001

  FORCE on cell =-STRESS in cart. coord.  units (eV):
  Direction    XX          YY          ZZ          XY          YZ          ZX
  --------------------------------------------------------------------------------------
  Alpha Z    63.16106    63.16106    63.16106
  Ewald   14609.18985 14431.91282-16006.26924  -291.85201   116.48733   118.64001
  Hartree 15509.92343 15366.11695-14384.77500  -203.07805    20.86901    35.48863
  E(xc)    -445.38428  -445.36247  -444.04402    -0.28796     0.57496     0.63554
  Local  -31083.19570-30758.36500 29428.61261   485.26083  -102.67719  -121.47945
  n-local   120.64105   120.62815   112.45816     0.15436     0.81424     0.34078
  augment    44.55595    44.19504    45.38127     0.52760    -2.35445    -2.18666
  Kinetic  1175.59640  1169.47890  1186.49173     8.41360   -33.36887   -31.33849
  Fock        0.00000     0.00000     0.00000     0.00000     0.00000     0.00000
  -------------------------------------------------------------------------------------
  Total      -5.51224    -8.23455     1.01655    -0.86163     0.34503     0.10036
  in kB      -3.42315    -5.11373     0.63129    -0.53508     0.21426     0.06232
  external pressure =       -2.64 kB  Pullay stress =        0.00 kB


 VOLUME and BASIS-vectors are now :
 -----------------------------------------------------------------------------
  energy-cutoff  :      520.00
  volume of cell :     2579.96
      direct lattice vectors                 reciprocal lattice vectors
     9.555752754  0.000000000  0.000000000     0.104649003  0.060419130  0.000000000
    -4.777876377  8.275524637  0.000000000     0.000000000  0.120838260  0.000000000
     0.000000000  0.000000000 32.625095367     0.000000000  0.000000000  0.030651251

  length of vectors
     9.555752754  9.555752754 32.625095367     0.120838260  0.120838260  0.030651251


 FORCES acting on ions
    electron-ion (+dipol)            ewald-force                    non-local-force                 convergence-correction
 -----------------------------------------------------------------------------------------------
   0.419E-01 -.391E-01 0.122E+03   -.317E-02 -.416E-02 -.122E+03   -.244E-01 0.192E-01 -.801E+00   -.176E-04 0.369E-04 0.314E-03
   0.141E+00 -.105E+00 0.568E+02   -.112E+00 0.236E-01 -.569E+02   -.209E-01 0.623E-01 0.994E-02   -.520E-05 -.918E-05 -.759E-03
   -.791E+00 0.282E+00 0.125E+01   0.827E+00 -.358E+00 -.195E+01   -.270E-01 0.472E-01 0.682E+00   0.330E-04 0.409E-04 -.443E-03
   -.201E-01 -.302E-01 0.123E+03   0.338E-02 0.263E-02 -.122E+03   -.443E-02 0.178E-01 -.871E+00   0.343E-04 0.902E-05 0.314E-03
   -.806E-01 -.660E-01 0.567E+02   0.105E+00 0.655E-01 -.567E+02   -.304E-01 -.204E-03 0.493E-01   -.743E-05 -.211E-05 -.761E-03
   -.307E+01 -.316E+01 -.847E+01   0.301E+01 0.308E+01 0.802E+01   0.377E-01 0.750E-01 0.464E+00   0.772E-05 -.328E-04 -.613E-03
   0.278E-01 0.463E-01 0.123E+03   -.567E-02 -.156E-02 -.122E+03   -.146E-01 -.932E-02 -.893E+00   -.191E-04 -.483E-04 0.303E-03
   0.368E-02 0.129E+00 0.568E+02   -.121E-01 -.877E-01 -.569E+02   -.299E-02 -.268E-01 0.655E-01   -.265E-04 -.126E-04 -.741E-03
   -.141E+01 0.898E+00 -.151E+02   0.140E+01 -.837E+00 0.146E+02   0.750E-02 -.308E-01 0.486E+00   0.241E-04 0.252E-04 -.580E-03
   -.453E-01 -.686E-01 0.123E+03   -.169E-02 -.228E-03 -.122E+03   0.199E-01 0.551E-01 -.908E+00   0.409E-04 0.275E-04 0.329E-03
   0.249E-01 -.206E-01 0.570E+02   -.284E-01 -.333E-01 -.570E+02   0.266E-02 0.470E-01 0.699E-01   -.144E-04 0.184E-04 -.771E-03
   -.606E+00 0.547E+00 -.442E+01   0.457E+00 -.646E+00 0.405E+01   0.114E+00 0.925E-01 0.381E+00   -.267E-04 -.307E-05 -.643E-03
   0.878E-02 0.189E-01 0.123E+03   0.912E-03 0.966E-02 -.122E+03   -.133E-01 -.272E-01 -.902E+00   -.452E-05 -.587E-04 0.303E-03
   0.191E+00 -.124E+00 0.567E+02   -.168E+00 0.120E+00 -.568E+02   -.135E-01 0.647E-02 0.478E-01   0.253E-04 0.215E-04 -.752E-03
   0.518E+01 0.256E+01 -.133E+02   -.532E+01 -.245E+01 0.129E+02   0.144E+00 -.107E+00 0.362E+00   -.445E-04 -.323E-04 -.604E-03
   0.113E-03 -.217E-01 0.122E+03   0.838E-02 -.504E-02 -.122E+03   -.131E-01 0.209E-01 -.802E+00   -.254E-04 0.372E-04 0.311E-03
   -.740E-01 0.172E+00 0.567E+02   0.713E-01 -.150E+00 -.567E+02   0.142E-02 -.100E-01 0.475E-02   0.403E-04 -.992E-05 -.742E-03
   -.422E+00 0.394E+01 -.325E+01   0.446E+00 -.418E+01 0.243E+01   -.430E-01 0.244E+00 0.774E+00   0.155E-05 -.189E-04 -.574E-03
   0.346E-01 0.815E-02 0.123E+03   0.484E-02 -.712E-02 -.122E+03   -.297E-01 0.189E-01 -.895E+00   -.235E-04 -.393E-04 0.316E-03
   -.162E+00 0.690E-01 0.569E+02   0.150E+00 -.106E+00 -.570E+02   0.237E-02 0.297E-01 0.488E-01   0.188E-04 -.199E-04 -.736E-03
   0.902E+00 0.217E+01 -.135E+02   -.781E+00 -.214E+01 0.131E+02   -.106E+00 0.158E-02 0.384E+00   0.697E-05 0.289E-04 -.620E-03
   0.376E-01 -.334E-01 0.123E+03   -.429E-02 0.857E-02 -.122E+03   -.139E-01 0.430E-02 -.839E+00   -.313E-04 0.256E-04 0.262E-03
   -.646E-01 -.932E-01 0.569E+02   0.559E-01 0.118E+00 -.570E+02   -.136E-02 -.218E-01 0.136E-01   -.195E-04 0.283E-04 -.750E-03
   -.422E+01 0.228E+01 0.790E+01   0.443E+01 -.252E+01 -.883E+01   -.199E+00 0.238E+00 0.907E+00   0.504E-04 -.506E-04 -.510E-03
   -.364E-02 0.523E-01 0.122E+03   -.275E-02 -.263E-02 -.122E+03   -.190E-02 -.244E-01 -.830E+00   0.455E-04 0.100E-04 0.301E-03
   0.807E-01 -.284E-01 0.566E+02   -.629E-01 0.549E-01 -.566E+02   -.717E-02 -.158E-01 -.190E-01   -.122E-04 -.140E-04 -.771E-03
   -.170E+01 -.813E+01 0.617E+01   0.205E+01 0.861E+01 -.736E+01   -.367E+00 -.476E+00 0.116E+01   -.243E-04 0.412E-04 -.705E-03
   -.497E-01 -.274E-01 0.900E+02   0.240E-01 -.704E-02 -.900E+02   0.315E-01 -.121E-02 -.355E-01   0.919E-05 -.161E-04 -.263E-03
   0.164E+00 0.215E+00 0.231E+02   -.172E+00 -.170E+00 -.232E+02   0.969E-02 -.759E-01 0.909E-01   0.272E-05 -.105E-04 -.930E-03
   -.654E-01 -.102E-01 0.900E+02   0.667E-01 0.178E-01 -.900E+02   0.227E-01 -.718E-02 -.401E-01   0.265E-05 0.498E-05 -.248E-03
   -.628E+00 -.338E-01 0.228E+02   0.563E+00 0.526E-01 -.230E+02   0.706E-01 -.346E-02 0.143E+00   0.248E-04 0.147E-04 -.950E-03
   -.125E-01 0.174E-01 0.900E+02   -.657E-01 -.902E-02 -.900E+02   0.187E-01 -.108E-01 -.937E-01   0.273E-04 0.342E-04 -.216E-03
   0.508E+00 -.101E+00 0.241E+02   -.461E+00 0.553E-01 -.242E+02   -.809E-01 0.425E-01 0.769E-01   0.115E-04 0.200E-04 -.939E-03
   0.163E-01 -.106E-02 0.901E+02   0.581E-02 0.838E-01 -.900E+02   0.698E-02 -.364E-01 -.403E-01   -.400E-04 -.515E-04 -.229E-03
   0.362E+00 0.293E+00 0.244E+02   -.363E+00 -.225E+00 -.246E+02   0.317E-01 -.382E-01 0.139E+00   -.249E-04 -.330E-04 -.970E-03
   -.801E-01 -.584E-01 0.900E+02   0.281E-01 0.529E-01 -.899E+02   0.297E-01 0.612E-02 -.766E-01   0.118E-04 0.123E-04 -.181E-03
   0.135E+01 -.288E+00 0.233E+02   -.127E+01 0.235E+00 -.234E+02   -.790E-01 0.569E-01 0.139E+00   -.326E-04 0.238E-04 -.970E-03
   0.539E-02 0.966E-01 0.901E+02   0.302E-01 -.101E+00 -.900E+02   -.120E-01 -.378E-01 -.494E-01   -.200E-04 0.126E-04 -.270E-03
   -.117E+00 0.814E+00 0.233E+02   0.167E+00 -.784E+00 -.235E+02   -.369E-01 -.453E-01 0.198E+00   0.105E-04 -.158E-04 -.941E-03
   0.368E-01 -.149E-01 0.901E+02   -.299E-01 0.385E-01 -.900E+02   -.317E-01 -.528E-02 -.103E+00   0.327E-04 -.251E-04 -.211E-03
   -.491E+00 -.181E-01 0.244E+02   0.516E+00 -.102E-01 -.245E+02   -.571E-01 0.363E-01 0.941E-01   0.210E-04 -.307E-04 -.944E-03
   0.114E+00 -.342E-01 0.900E+02   -.865E-01 -.122E-02 -.899E+02   -.186E-01 0.288E-02 -.600E-03   -.168E-04 0.361E-04 -.227E-03
   -.724E+00 -.264E+00 0.239E+02   0.710E+00 0.274E+00 -.240E+02   0.130E-01 -.406E-01 0.131E+00   0.625E-05 0.186E-04 -.101E-02
   -.767E-02 0.998E-01 0.900E+02   0.381E-01 -.949E-01 -.899E+02   0.172E-01 -.266E-02 -.225E-01   -.552E-05 -.793E-05 -.235E-03
   -.378E+00 -.638E+00 0.231E+02   0.304E+00 0.598E+00 -.233E+02   0.895E-01 0.403E-01 0.165E+00   -.229E-04 0.148E-04 -.961E-03
   0.209E+02 0.476E+02 -.267E+03   -.316E+02 -.733E+02 0.241E+03   0.107E+02 0.257E+02 0.257E+02   0.346E-03 0.548E-03 0.254E-02
   0.121E+02 0.149E+02 -.415E+03   -.243E+02 -.401E+02 0.446E+03   0.122E+02 0.252E+02 -.313E+02   0.405E-04 0.849E-03 0.183E-02
   0.367E+01 0.906E+01 -.418E+03   -.157E+02 -.315E+02 0.452E+03   0.120E+02 0.224E+02 -.343E+02   0.231E-03 0.648E-03 0.175E-02
   0.211E+02 0.427E+02 -.255E+03   -.370E+02 -.713E+02 0.235E+03   0.159E+02 0.286E+02 0.200E+02   0.510E-03 -.288E-03 0.207E-02
   -.249E+02 -.129E+02 -.264E+03   0.561E+02 -.530E+01 0.256E+03   -.312E+02 0.182E+02 0.811E+01   0.952E-04 0.161E-03 0.500E-03
   -.129E+01 0.585E+02 -.266E+03   -.959E+01 -.776E+02 0.234E+03   0.109E+02 0.191E+02 0.316E+02   -.511E-03 0.446E-03 0.214E-02
   0.374E+02 -.439E+02 -.883E+02   -.423E+02 0.493E+02 0.913E+02   0.492E+01 -.543E+01 -.301E+01   0.737E-06 0.970E-04 0.487E-03
   -.553E+02 -.133E+01 -.993E+02   0.624E+02 0.128E+01 0.103E+03   -.707E+01 0.508E-01 -.387E+01   0.113E-03 0.432E-04 0.529E-03
   -.404E+02 -.663E+02 -.653E+02   0.446E+02 0.732E+02 0.655E+02   -.428E+01 -.689E+01 -.143E+00   0.227E-03 0.376E-03 0.368E-03
   0.173E+02 0.999E+01 0.359E+02   -.190E+02 -.110E+02 -.429E+02   0.173E+01 0.101E+01 0.691E+01   -.997E-04 0.333E-04 -.145E-03
   -.392E+02 -.748E+02 -.532E+02   0.429E+02 0.820E+02 0.526E+02   -.369E+01 -.715E+01 0.633E+00   0.165E-03 0.384E-03 0.297E-03
   0.102E+02 0.229E+02 0.329E+02   -.113E+02 -.251E+02 -.397E+02   0.111E+01 0.219E+01 0.676E+01   -.426E-04 -.598E-04 -.206E-03
   0.268E+02 -.557E+02 -.741E+02   -.305E+02 0.624E+02 0.758E+02   0.371E+01 -.674E+01 -.160E+01   0.867E-04 -.175E-07 0.377E-03
   -.559E+02 -.241E+00 -.951E+02   0.628E+02 -.318E+00 0.990E+02   -.691E+01 0.544E+00 -.390E+01   0.117E-03 -.360E-05 0.475E-03
   0.115E+02 -.677E+02 -.983E+02   -.126E+02 0.745E+02 0.102E+03   0.108E+01 -.669E+01 -.419E+01   0.258E-04 0.320E-03 0.411E-03
   0.674E+02 0.291E+02 -.151E+02   -.732E+02 -.317E+02 0.131E+02   0.583E+01 0.258E+01 0.205E+01   -.217E-03 -.105E-03 -.119E-03
   0.258E+02 -.443E+02 -.785E+02   -.296E+02 0.505E+02 0.807E+02   0.379E+01 -.620E+01 -.224E+01   -.116E-03 0.205E-03 0.463E-03
   -.558E+02 0.225E+02 -.121E+03   0.614E+02 -.245E+02 0.127E+03   -.560E+01 0.201E+01 -.562E+01   0.692E-04 -.358E-05 0.593E-03
 -----------------------------------------------------------------------------------------------
   -.246E+02 -.109E+03 -.104E+02   0.355E-13 -.117E-12 0.441E-12   0.246E+02 0.109E+03 0.104E+02   0.107E-02 0.365E-02 -.565E-02
 
 
 POSITION                                       TOTAL-FORCE (eV/Angst)
 -----------------------------------------------------------------------------------
      0.00000      0.00000      0.00000         0.014486     -0.023915      0.009577
      4.77384      8.27428      5.15253         0.007315     -0.019157     -0.007208
     -0.00296      0.01729     10.75365         0.009102     -0.028381     -0.012016
     -1.59263      2.75851      0.00000        -0.020982     -0.009645     -0.012541
     -1.58780      2.75426      5.13434        -0.005911     -0.000536     -0.007003
      7.93389      2.74806     10.10742        -0.019318     -0.008679      0.012652
     -3.18525      5.51702      0.00000         0.007649      0.035443     -0.020516
      6.37063      5.49997      5.13233        -0.011395      0.014873     -0.006100
     -3.17516      5.54240     10.21186        -0.006698      0.030837      0.018937
      3.18525      0.00000      0.00000        -0.026942     -0.013586     -0.027314
     -1.58534      8.27446      5.12555        -0.000769     -0.006810      0.004254
     -1.63521      8.25303     10.04785        -0.035267     -0.006482      0.008530
      1.59263      2.75851      0.00000        -0.003545      0.001399     -0.015152
      1.59402      2.75957      5.14259         0.010362      0.002963     -0.007882
      1.51017      2.75505     10.22144         0.003263     -0.002097     -0.011865
     -0.00000      5.51702      0.00000        -0.004559     -0.005722     -0.001517
      0.00350      5.51139      5.16165        -0.001128      0.011253      0.001152
     -0.08918      5.49193     10.77173        -0.019060     -0.000665     -0.037746
      6.37050      0.00000      0.00000         0.009803      0.019956     -0.028306
      1.59795      8.26265      5.12894        -0.009719     -0.006799      0.004297
      1.59839      8.23479     10.20860         0.014314      0.025269      0.008013
      4.77788      2.75851      0.00000         0.019449     -0.020411      0.008122
      4.77502      2.75744      5.16270        -0.010076      0.002706      0.000172
      4.79799      2.63168     10.50943         0.012837     -0.007484     -0.026446
      3.18525      5.51702      0.00000        -0.008156      0.025356     -0.040291
      3.19552      5.51060      5.16892         0.010656      0.010717      0.002946
      3.24947      5.54196     10.28101        -0.019071      0.007850     -0.028136
      0.00000      1.83901      2.60418         0.005887     -0.035610      0.011938
      0.01435      1.80138      7.69302         0.002290     -0.030038     -0.006801
     -1.59263      4.59751      2.60418         0.024000      0.000552      0.012594
     -1.56267      4.61809      7.69253         0.005624      0.015497     -0.000114
     -3.18525      7.35602      2.60418        -0.059432     -0.002248     -0.037555
     -3.20309      7.33522      7.61873        -0.033280     -0.002664      0.008942
      3.18525      1.83901      2.60418         0.029104      0.046473      0.022000
      3.18941      1.86507      7.68382         0.030404      0.030365     -0.009455
      1.59263      4.59751      2.60418        -0.022171      0.000714      0.008019
      1.58956      4.61701      7.72904        -0.002908      0.003477     -0.011033
      0.00000      7.35602      2.60418         0.023621     -0.041740      0.025291
      0.01604      7.32485      7.67128         0.013508     -0.015421     -0.007067
      6.37050      1.83901      2.60418        -0.024711      0.018352     -0.030805
      6.34856      1.81328      7.64932        -0.032089      0.008046      0.010542
      4.77788      4.59751      2.60418         0.009422     -0.032389      0.043306
      4.78534      4.55099      7.75137        -0.000967     -0.029759     -0.034492
      3.18525      7.35602      2.60418         0.047662      0.002313      0.023975
      3.21992      7.35245      7.73003         0.015697      0.000431     -0.018106
      9.43473      0.06753     12.92594        -0.008538     -0.005457      0.018757
     -1.99667      8.04170     13.43338         0.001618      0.010193      0.034269
      7.35776      2.07036     13.41405        -0.001119      0.006422      0.033751
      4.56443      2.66092     12.68529         0.010610     -0.027138      0.019658
      3.04363      4.95975     12.47953         0.020453      0.022256      0.039505
     -0.44560      5.73378     12.94087        -0.009749      0.007617     -0.002843
      8.84128      0.75653     13.31411        -0.002235     -0.000834     -0.004397
      0.73576      0.08408     13.41146         0.004726      0.000667     -0.011547
      3.29958      0.60166     13.43289         0.000083      0.003343     -0.007775
     -2.22122      7.92412     12.46258        -0.010168     -0.009271     -0.025397
      7.80666      2.93894     13.31573        -0.001447      0.004060     -0.008983
      7.21721      1.79042     12.45947        -0.004163     -0.008283     -0.027025
      4.11763      3.51799     12.90198         0.018215     -0.015475      0.022927
      5.42060      2.62020     13.17601         0.023440     -0.015599     -0.012176
      2.88299      5.78134     12.99764        -0.009168      0.063515      0.002499
      2.14305      4.59561     12.17242         0.029286      0.001677      0.146475
     -0.92545      6.55103     13.25308        -0.007556      0.002256     -0.014859
      0.22008      5.51341     13.62067        -0.002587     -0.004554     -0.002633
 -----------------------------------------------------------------------------------
    total drift:                               -0.005570     -0.006220     -0.023002


--------------------------------------------------------------------------------------------------------



  FREE ENERGIE OF THE ION-ELECTRON SYSTEM (eV)
  ---------------------------------------------------
  free  energy   TOTEN  =       -67.54068612 eV

  energy  without entropy=      -67.54068612  energy(sigma->0) =      -67.54068612
 


--------------------------------------------------------------------------------------------------------


    POTLOK:  cpu time    5.1683: real time    5.1711


--------------------------------------------------------------------------------------------------------


 stress matrix after NEB project (eV)
     -5.51224     -0.86163      0.10036
     -0.86163     -8.23455      0.34503
      0.10036      0.34503      1.01655
  FORCES: max atom, RMS     0.149383    0.030231
  FORCE total and by dimension    0.239951    0.146475
  Stress total and by dimension   10.048331    8.234546
     LOOP+:  cpu time  187.0376: real time  188.9362
 vacuum level on the upper side and lower side of the slab         2.146         3.279
    4ORBIT:  cpu time    0.0000: real time    0.0000
 BZINTS: Fermi energy: -0.535841;138.000000 electrons
         Band energy:-880.090330;  BLOECHL correction: -0.100234

 total amount of memory used by VASP MPI-rank0    62217. kBytes
=======================================================================

   base      :      30000. kBytes
   nonlr-proj:       6314. kBytes
   fftplans  :       6459. kBytes
   grid      :      11407. kBytes
   one-center:         24. kBytes
   wavefun   :       8013. kBytes
 
  
  
 General timing and accounting informations for this job:
 ========================================================
  
                  Total CPU time used (sec):      232.708
                            User time (sec):      224.675
                          System time (sec):        8.033
                         Elapsed time (sec):      247.497
  
                   Maximum memory used (kb):      268496.
                   Average memory used (kb):           0.
  
                          Minor page faults:       181836
                          Major page faults:            0
                 Voluntary context switches:        71304
