<?xml version="1.0" encoding="ISO-8859-1"?>
<modeling>
 <generator>
  <i name="program" type="string">vasp </i>
  <i name="version" type="string">5.4.4.18Apr17-6-g9f103f2a35  </i>
  <i name="subversion" type="string">(build Jun 08 2018 12:06:12) complex            parallel </i>
  <i name="platform" type="string">LinuxIFC </i>
  <i name="date" type="string">2019 06 06 </i>
  <i name="time" type="string">06:54:14 </i>
 </generator>
 <incar>
  <i type="string" name="SYSTEM"> Mg_slab_in_a_box</i>
  <i type="string" name="PREC">accurate</i>
  <i type="string" name="ALGO"> V</i>
  <i type="int" name="NELM">   300</i>
  <i type="int" name="NELMIN">     6</i>
  <i name="EDIFF">      0.00000500</i>
  <i name="ENCUT">    520.00000000</i>
  <i type="string" name="LREAL"> AUTO</i>
  <i type="logical" name="LPLANE"> T  </i>
  <i type="int" name="ISMEAR">    -5</i>
  <i type="logical" name="LWAVE"> F  </i>
  <i type="logical" name="LCHARG"> T  </i>
  <i type="logical" name="LVTOT"> T  </i>
  <i type="logical" name="LVHAR"> T  </i>
  <i type="logical" name="LSCALU"> F  </i>
  <i type="logical" name="LASPH"> T  </i>
  <i type="logical" name="LAECHG"> T  </i>
  <v type="int" name="KPOINT_BSE">    -1     0     0     0</v>
  <i type="int" name="NELM">   300</i>
  <i type="string" name="GGA"> BO</i>
  <i name="PARAM1">      0.18333333</i>
  <i name="PARAM2">      0.22000000</i>
  <i type="logical" name="LUSE_VDW"> T  </i>
  <i name="AGGAC">      0.00000000</i>
  <i type="logical" name="LDIPOL"> T  </i>
  <i type="int" name="IDIPOL">     3</i>
  <i type="logical" name="LASPH"> T  </i>
 </incar>
 <structure name="primitive_cell" >
  <crystal>
   <varray name="basis" >
    <v>       9.55575275       0.00000000       0.00000000 </v>
    <v>      -4.77787638       8.27552464       0.00000000 </v>
    <v>       0.00000000       0.00000000      32.62509537 </v>
   </varray>
   <i name="volume">   2579.95558872 </i>
   <varray name="rec_basis" >
    <v>       0.10464900       0.06041913       0.00000000 </v>
    <v>       0.00000000       0.12083826       0.00000000 </v>
    <v>       0.00000000       0.00000000       0.03065125 </v>
   </varray>
  </crystal>
  <varray name="positions" >
   <v>       0.00000000       0.00000000       0.00000000 </v>
   <v>       0.00000002      -0.33333328       0.00000000 </v>
   <v>      -0.33333330      -0.33333328       0.00000000 </v>
   <v>      -0.33333332       0.00000000       0.00000000 </v>
   <v>       0.33333334       0.00000000       0.00000000 </v>
   <v>       0.00000001       0.33333336       0.00000000 </v>
   <v>       0.33333335       0.33333336       0.00000000 </v>
   <v>      -0.22222216      -0.11111106       0.07982145 </v>
   <v>       0.11111116      -0.11111106       0.07982145 </v>
   <v>       0.11111113       0.22222222       0.07982145 </v>
   <v>      -0.22222219      -0.44444439       0.07982145 </v>
   <v>      -0.22222221       0.22222222       0.07982145 </v>
   <v>       0.44444450       0.22222222       0.07982145 </v>
   <v>      -0.00049754      -0.00015084       0.15793135 </v>
   <v>       0.33333336      -0.33333328       0.00000000 </v>
   <v>      -0.33333332       0.33333336       0.00000000 </v>
   <v>       0.44444450      -0.44444439       0.07982145 </v>
   <v>       0.44444451      -0.11111106       0.07982145 </v>
   <v>       0.11111114      -0.44444439       0.07982145 </v>
   <v>      -0.33355425      -0.00155568       0.15720850 </v>
   <v>       0.33403163      -0.00012881       0.15710460 </v>
   <v>       0.00024890       0.33282032       0.15737408 </v>
   <v>      -0.00101687      -0.33539313       0.15731243 </v>
   <v>       0.33354361       0.33346128       0.15762686 </v>
   <v>      -0.33264683      -0.33410890       0.15843395 </v>
   <v>       0.33335948      -0.33401324       0.15821103 </v>
   <v>      -0.33369670       0.33320479       0.15824308 </v>
   <v>       0.10798744      -0.11362428       0.23352360 </v>
   <v>       0.11033931       0.21767615       0.23580067 </v>
   <v>      -0.21881070      -0.11154324       0.23693514 </v>
   <v>      -0.22607275       0.21911310       0.23446130 </v>
   <v>       0.44645421       0.22537145       0.23551864 </v>
   <v>      -0.22425212      -0.45006657       0.23758911 </v>
   <v>       0.44423985      -0.11487786       0.23513446 </v>
   <v>       0.11548917      -0.44195846       0.23578559 </v>
   <v>       0.44530173      -0.44208828       0.23690488 </v>
   <v>       0.32751755      -0.00271827       0.30797920 </v>
   <v>      -0.00369119       0.33207080       0.30980494 </v>
   <v>       0.00259023      -0.33026568       0.31300643 </v>
   <v>      -0.33519122      -0.00492284       0.31290626 </v>
   <v>       0.32449574       0.33291576       0.31330002 </v>
   <v>      -0.32510565      -0.33031883       0.31512586 </v>
   <v>       0.00073518       0.00208950       0.32961268 </v>
   <v>      -0.33889140       0.31800814       0.32212712 </v>
   <v>       0.32248510      -0.33636431       0.33016693 </v>
   <v>       0.24632045      -0.04246284       0.38199373 </v>
   <v>      -0.13655068       0.21635091       0.38189830 </v>
   <v>      -0.00858466       0.00815999       0.39619636 </v>
   <v>      -0.49806882      -0.44467427       0.37310002 </v>
   <v>      -0.38182316      -0.40067282       0.38251324 </v>
   <v>      -0.02905954       0.09141797       0.40809408 </v>
   <v>      -0.34899434      -0.30139296       0.39839395 </v>
   <v>       0.08207643       0.01015987       0.41107789 </v>
   <v>       0.27692298      -0.02825519       0.41174998 </v>
   <v>      -0.36156650       0.32154151       0.38882014 </v>
   <v>      -0.00547319       0.35513592       0.40814389 </v>
   <v>      -0.10492857       0.25017864       0.41115727 </v>
   <v>      -0.35654021       0.42510723       0.39546197 </v>
   <v>       0.38164910       0.07270335       0.41173490 </v>
   <v>       0.29979894      -0.30713978       0.39665373 </v>
   <v>       0.29896032      -0.20838545       0.40622361 </v>
   <v>      -0.27442925       0.31662056       0.40386133 </v>
   <v>       0.35614594      -0.33376967       0.41749063 </v>
  </varray>
 </structure>
 <varray name="primitive_index" >
  <v type="int" >        1 </v>
  <v type="int" >        7 </v>
  <v type="int" >       25 </v>
  <v type="int" >       19 </v>
  <v type="int" >       10 </v>
  <v type="int" >        4 </v>
  <v type="int" >       13 </v>
  <v type="int" >       44 </v>
  <v type="int" >       32 </v>
  <v type="int" >       28 </v>
  <v type="int" >       42 </v>
  <v type="int" >       40 </v>
  <v type="int" >       34 </v>
  <v type="int" >        2 </v>
  <v type="int" >       16 </v>
  <v type="int" >       22 </v>
  <v type="int" >       36 </v>
  <v type="int" >       38 </v>
  <v type="int" >       30 </v>
  <v type="int" >       20 </v>
  <v type="int" >       11 </v>
  <v type="int" >        5 </v>
  <v type="int" >        8 </v>
  <v type="int" >       14 </v>
  <v type="int" >       26 </v>
  <v type="int" >       17 </v>
  <v type="int" >       23 </v>
  <v type="int" >       33 </v>
  <v type="int" >       29 </v>
  <v type="int" >       45 </v>
  <v type="int" >       41 </v>
  <v type="int" >       35 </v>
  <v type="int" >       43 </v>
  <v type="int" >       39 </v>
  <v type="int" >       31 </v>
  <v type="int" >       37 </v>
  <v type="int" >       12 </v>
  <v type="int" >        6 </v>
  <v type="int" >        9 </v>
  <v type="int" >       21 </v>
  <v type="int" >       15 </v>
  <v type="int" >       27 </v>
  <v type="int" >        3 </v>
  <v type="int" >       24 </v>
  <v type="int" >       18 </v>
  <v type="int" >       55 </v>
  <v type="int" >       57 </v>
  <v type="int" >       46 </v>
  <v type="int" >       61 </v>
  <v type="int" >       50 </v>
  <v type="int" >       52 </v>
  <v type="int" >       60 </v>
  <v type="int" >       53 </v>
  <v type="int" >       47 </v>
  <v type="int" >       49 </v>
  <v type="int" >       56 </v>
  <v type="int" >       48 </v>
  <v type="int" >       58 </v>
  <v type="int" >       54 </v>
  <v type="int" >       51 </v>
  <v type="int" >       62 </v>
  <v type="int" >       59 </v>
  <v type="int" >       63 </v>
 </varray>
 <kpoints>
  <generation param="Gamma">
   <v type="int" name="divisions">       3        3        1 </v>
   <v name="usershift">      0.00000000       0.00000000       0.00000000 </v>
   <v name="genvec1">      0.33333333       0.00000000       0.00000000 </v>
   <v name="genvec2">      0.00000000       0.33333333       0.00000000 </v>
   <v name="genvec3">      0.00000000       0.00000000       1.00000000 </v>
   <v name="shift">      0.00000000       0.00000000       0.00000000 </v>
  </generation>
  <varray name="kpointlist" >
   <v>       0.00000000       0.00000000       0.00000000 </v>
   <v>       0.33333333      -0.00000000       0.00000000 </v>
   <v>       0.00000000       0.33333333       0.00000000 </v>
   <v>       0.33333333       0.33333333       0.00000000 </v>
   <v>      -0.33333333       0.33333333       0.00000000 </v>
  </varray>
  <varray name="weights" >
   <v>       0.11111111 </v>
   <v>       0.22222222 </v>
   <v>       0.22222222 </v>
   <v>       0.22222222 </v>
   <v>       0.22222222 </v>
  </varray>
  <varray name="tetrahedronlist"  type="int" >
   <v type="int" >        2        2        3        3        4 </v>
   <v type="int" >        2        1        2        3        3 </v>
   <v type="int" >        2        1        1        2        3 </v>
   <v type="int" >        2        2        3        4        4 </v>
   <v type="int" >        2        2        2        3        4 </v>
   <v type="int" >        2        1        2        2        3 </v>
   <v type="int" >        2        2        4        4        5 </v>
   <v type="int" >        2        2        2        4        4 </v>
   <v type="int" >        4        2        2        2        4 </v>
   <v type="int" >        2        2        4        5        5 </v>
   <v type="int" >        2        2        2        4        5 </v>
   <v type="int" >        2        1        3        5        5 </v>
   <v type="int" >        2        1        2        5        5 </v>
   <v type="int" >        2        1        2        2        5 </v>
   <v type="int" >        2        1        3        3        5 </v>
   <v type="int" >        2        1        1        3        5 </v>
   <v type="int" >        2        1        1        2        5 </v>
   <v type="int" >        2        3        3        4        5 </v>
   <v type="int" >        4        3        3        3        4 </v>
   <v type="int" >        2        3        4        5        5 </v>
   <v type="int" >        2        3        4        4        5 </v>
   <v type="int" >        2        3        3        4        4 </v>
   <v type="int" >        4        4        5        5        5 </v>
   <v type="int" >        2        4        4        5        5 </v>
  </varray>
  <i name="volumeweight">      0.01851852 </i>
 </kpoints>
 <parameters>
  <separator name="general" >
   <i type="string" name="SYSTEM">Mg_slab_in_a_box</i>
   <i type="logical" name="LCOMPAT"> F  </i>
  </separator>
  <separator name="electronic" >
   <i type="string" name="PREC">accura</i>
   <i name="ENMAX">    520.00000000</i>
   <i name="ENAUG">    605.39200000</i>
   <i name="EDIFF">      0.00000500</i>
   <i type="int" name="IALGO">    48</i>
   <i type="int" name="IWAVPR">    10</i>
   <i type="int" name="NBANDS">   102</i>
   <i name="NELECT">    138.00000000</i>
   <i type="int" name="TURBO">     0</i>
   <i type="int" name="IRESTART">     0</i>
   <i type="int" name="NREBOOT">     0</i>
   <i type="int" name="NMIN">     0</i>
   <i name="EREF">      0.00000000</i>
   <separator name="electronic smearing" >
    <i type="int" name="ISMEAR">    -5</i>
    <i name="SIGMA">      0.20000000</i>
    <i name="KSPACING">      0.50000000</i>
    <i type="logical" name="KGAMMA"> T  </i>
   </separator>
   <separator name="electronic projectors" >
    <i type="logical" name="LREAL"> T  </i>
    <v name="ROPT">     -0.00025000     -0.00025000     -0.00025000</v>
    <i type="int" name="LMAXPAW">  -100</i>
    <i type="int" name="LMAXMIX">     2</i>
    <i type="logical" name="NLSPLINE"> F  </i>
   </separator>
   <separator name="electronic startup" >
    <i type="int" name="ISTART">     0</i>
    <i type="int" name="ICHARG">     2</i>
    <i type="int" name="INIWAV">     1</i>
   </separator>
   <separator name="electronic spin" >
    <i type="int" name="ISPIN">     1</i>
    <i type="logical" name="LNONCOLLINEAR"> F  </i>
    <v name="MAGMOM">      1.00000000      1.00000000      1.00000000      1.00000000      1.00000000      1.00000000      1.00000000      1.00000000      1.00000000      1.00000000      1.00000000      1.00000000      1.00000000      1.00000000      1.00000000      1.00000000      1.00000000      1.00000000      1.00000000      1.00000000
      1.00000000      1.00000000      1.00000000      1.00000000      1.00000000      1.00000000      1.00000000      1.00000000      1.00000000      1.00000000      1.00000000      1.00000000      1.00000000      1.00000000      1.00000000      1.00000000      1.00000000      1.00000000      1.00000000      1.00000000
      1.00000000      1.00000000      1.00000000      1.00000000      1.00000000      1.00000000      1.00000000      1.00000000      1.00000000      1.00000000      1.00000000      1.00000000      1.00000000      1.00000000      1.00000000      1.00000000      1.00000000      1.00000000      1.00000000      1.00000000
      1.00000000      1.00000000      1.00000000</v>
    <i name="NUPDOWN">     -1.00000000</i>
    <i type="logical" name="LSORBIT"> F  </i>
    <v name="SAXIS">      0.00000000      0.00000000      1.00000000</v>
    <i type="logical" name="LSPIRAL"> F  </i>
    <v name="QSPIRAL">      0.00000000      0.00000000      0.00000000</v>
    <i type="logical" name="LZEROZ"> F  </i>
   </separator>
   <separator name="electronic exchange-correlation" >
    <i type="logical" name="LASPH"> T  </i>
    <i type="logical" name="LMETAGGA"> F  </i>
   </separator>
   <separator name="electronic convergence" >
    <i type="int" name="NELM">   300</i>
    <i type="int" name="NELMDL">   -12</i>
    <i type="int" name="NELMIN">     6</i>
    <i name="ENINI">    520.00000000</i>
    <separator name="electronic convergence detail" >
     <i type="logical" name="LDIAG"> T  </i>
     <i type="logical" name="LSUBROT"> F  </i>
     <i name="WEIMIN">      0.00000000</i>
     <i name="EBREAK">      0.00000001</i>
     <i name="DEPER">      0.30000000</i>
     <i type="int" name="NRMM">     4</i>
     <i name="TIME">      0.40000000</i>
    </separator>
   </separator>
   <separator name="electronic mixer" >
    <i name="AMIX">      0.40000000</i>
    <i name="BMIX">      1.00000000</i>
    <i name="AMIN">      0.10000000</i>
    <i name="AMIX_MAG">      1.60000000</i>
    <i name="BMIX_MAG">      1.00000000</i>
    <separator name="electronic mixer details" >
     <i type="int" name="IMIX">     4</i>
     <i type="logical" name="MIXFIRST"> F  </i>
     <i type="int" name="MAXMIX">   -45</i>
     <i name="WC">    100.00000000</i>
     <i type="int" name="INIMIX">     1</i>
     <i type="int" name="MIXPRE">     1</i>
     <i type="int" name="MREMOVE">     5</i>
    </separator>
   </separator>
   <separator name="electronic dipolcorrection" >
    <i type="logical" name="LDIPOL"> T  </i>
    <i type="logical" name="LMONO"> F  </i>
    <i type="int" name="IDIPOL">     3</i>
    <i name="EPSILON">      1.00000000</i>
    <v name="DIPOL">   -100.00000000   -100.00000000   -100.00000000</v>
    <i name="EFIELD">      0.00000000</i>
   </separator>
  </separator>
  <separator name="grids" >
   <i type="int" name="NGX">    72</i>
   <i type="int" name="NGY">    72</i>
   <i type="int" name="NGZ">   250</i>
   <i type="int" name="NGXF">   144</i>
   <i type="int" name="NGYF">   144</i>
   <i type="int" name="NGZF">   500</i>
   <i type="logical" name="ADDGRID"> F  </i>
  </separator>
  <separator name="ionic" >
   <i type="int" name="NSW">     0</i>
   <i type="int" name="IBRION">    -1</i>
   <i type="int" name="MDALGO">     0</i>
   <i type="int" name="ISIF">     2</i>
   <i name="PSTRESS">      0.00000000</i>
   <i name="EDIFFG">      0.00005000</i>
   <i type="int" name="NFREE">     0</i>
   <i name="POTIM">      0.50000000</i>
   <i name="SMASS">     -3.00000000</i>
   <i name="SCALEE">      1.00000000</i>
  </separator>
  <separator name="ionic md" >
   <i name="TEBEG">      0.00010000</i>
   <i name="TEEND">      0.00010000</i>
   <i type="int" name="NBLOCK">     1</i>
   <i type="int" name="KBLOCK">     1</i>
   <i type="int" name="NPACO">   256</i>
   <i name="APACO">     16.00000000</i>
  </separator>
  <separator name="symmetry" >
   <i type="int" name="ISYM">     2</i>
   <i name="SYMPREC">      0.00001000</i>
  </separator>
  <separator name="dos" >
   <i type="int" name="LORBIT">     0</i>
   <v name="RWIGS">     -1.00000000     -1.00000000     -1.00000000</v>
   <i type="int" name="NEDOS">   301</i>
   <i name="EMIN">     10.00000000</i>
   <i name="EMAX">    -10.00000000</i>
   <i name="EFERMI">      0.00000000</i>
  </separator>
  <separator name="writing" >
   <i type="int" name="NWRITE">     2</i>
   <i type="logical" name="LWAVE"> F  </i>
   <i type="logical" name="LDOWNSAMPLE"> F  </i>
   <i type="logical" name="LCHARG"> T  </i>
   <i type="logical" name="LPARD"> F  </i>
   <i type="logical" name="LVTOT"> F  </i>
   <i type="logical" name="LVHAR"> T  </i>
   <i type="logical" name="LELF"> F  </i>
   <i type="logical" name="LOPTICS"> F  </i>
   <v name="STM">      0.00000000      0.00000000      0.00000000      0.00000000      0.00000000      0.00000000      0.00000000</v>
  </separator>
  <separator name="performance" >
   <i type="int" name="NPAR">     3</i>
   <i type="int" name="NSIM">     4</i>
   <i type="int" name="NBLK">    -1</i>
   <i type="logical" name="LPLANE"> T  </i>
   <i type="logical" name="LSCALAPACK"> T  </i>
   <i type="logical" name="LSCAAWARE"> F  </i>
   <i type="logical" name="LSCALU"> F  </i>
   <i type="logical" name="LASYNC"> F  </i>
   <i type="logical" name="LORBITALREAL"> F  </i>
  </separator>
  <separator name="miscellaneous" >
   <i type="int" name="IDIOT">     3</i>
   <i type="int" name="ISPECIAL">     0</i>
   <i type="logical" name="LMUSIC"> F  </i>
   <v name="POMASS">     24.30500000     16.00000000      1.00000000</v>
   <v name="DARWINR">      0.00000000      0.00000000      0.00000000</v>
   <v name="DARWINV">      1.00000000      1.00000000      1.00000000</v>
   <i type="logical" name="LCORR"> T  </i>
  </separator>
  <i type="logical" name="GGA_COMPAT"> T  </i>
  <i type="logical" name="LBERRY"> F  </i>
  <i type="int" name="ICORELEVEL">     0</i>
  <i type="logical" name="LDAU"> F  </i>
  <i type="int" name="I_CONSTRAINED_M">     0</i>
  <separator name="electronic exchange-correlation" >
   <i type="string" name="GGA">BO</i>
   <i type="int" name="VOSKOWN">     0</i>
   <i type="logical" name="LHFCALC"> F  </i>
   <i type="string" name="PRECFOCK"></i>
   <i type="logical" name="LSYMGRAD"> F  </i>
   <i type="logical" name="LHFONE"> F  </i>
   <i type="logical" name="LRHFCALC"> F  </i>
   <i type="logical" name="LTHOMAS"> F  </i>
   <i type="logical" name="LMODELHF"> F  </i>
   <i name="ENCUT4O">     -1.00000000</i>
   <i type="int" name="EXXOEP">     0</i>
   <i type="int" name="FOURORBIT">     0</i>
   <i name="AEXX">      0.00000000</i>
   <i name="HFALPHA">      0.00000000</i>
   <i name="MCALPHA">      0.00000000</i>
   <i name="ALDAX">      1.00000000</i>
   <i name="AGGAX">      1.00000000</i>
   <i name="ALDAC">      1.00000000</i>
   <i name="AGGAC">      0.00000000</i>
   <i type="int" name="NKREDX">     1</i>
   <i type="int" name="NKREDY">     1</i>
   <i type="int" name="NKREDZ">     1</i>
   <i type="logical" name="SHIFTRED"> F  </i>
   <i type="logical" name="ODDONLY"> F  </i>
   <i type="logical" name="EVENONLY"> F  </i>
   <i type="int" name="LMAXFOCK">     0</i>
   <i type="int" name="NMAXFOCKAE">     0</i>
   <i type="logical" name="LFOCKAEDFT"> F  </i>
   <i name="HFSCREEN">      0.00000000</i>
   <i name="HFSCREENC">      0.00000000</i>
   <i type="int" name="NBANDSGWLOW">     0</i>
  </separator>
  <separator name="vdW DFT" >
   <i type="logical" name="LUSE_VDW"> T  </i>
   <i name="Zab_VDW">     -0.84910000</i>
   <i name="PARAM1">      0.18333333</i>
   <i name="PARAM2">      0.22000000</i>
   <i name="PARAM3">      0.00000000</i>
  </separator>
  <separator name="model GW" >
   <i type="int" name="MODEL_GW">     0</i>
   <i name="MODEL_EPS0">     24.57100561</i>
   <i name="MODEL_ALPHA">      1.00000000</i>
  </separator>
  <separator name="linear response parameters" >
   <i type="logical" name="LEPSILON"> F  </i>
   <i type="logical" name="LRPA"> F  </i>
   <i type="logical" name="LNABLA"> F  </i>
   <i type="logical" name="LVEL"> F  </i>
   <i type="int" name="KINTER">     0</i>
   <i name="CSHIFT">      0.10000000</i>
   <i name="OMEGAMAX">     -1.00000000</i>
   <i name="DEG_THRESHOLD">      0.00200000</i>
   <i name="RTIME">     -0.10000000</i>
   <i name="WPLASMAI">      0.00000000</i>
   <v name="DFIELD">      0.00000000      0.00000000      0.00000000</v>
   <v name="WPLASMA">      0.00000000      0.00000000      0.00000000      0.00000000      0.00000000      0.00000000      0.00000000      0.00000000      0.00000000</v>
  </separator>
  <separator name="orbital magnetization" >
   <i type="logical" name="NUCIND"> F  </i>
   <v name="MAGPOS">      0.00000000      0.00000000      0.00000000</v>
   <i type="logical" name="LNICSALL"> T  </i>
   <i type="logical" name="ORBITALMAG"> F  </i>
   <i type="logical" name="LMAGBLOCH"> F  </i>
   <i type="logical" name="LCHIMAG"> F  </i>
   <i type="logical" name="LGAUGE"> T  </i>
   <i type="int" name="MAGATOM">     0</i>
   <v name="MAGDIPOL">      0.00000000      0.00000000      0.00000000</v>
   <v name="AVECCONST">      0.00000000      0.00000000      0.00000000</v>
  </separator>
  <separator name="response functions" >
   <i type="logical" name="LADDER"> F  </i>
   <i type="logical" name="LRPAFORCE"> F  </i>
   <i type="logical" name="LFXC"> F  </i>
   <i type="logical" name="LHARTREE"> T  </i>
   <i type="int" name="IBSE">     0</i>
   <v type="int" name="KPOINT">    -1     0     0     0</v>
   <i type="logical" name="LTCTE"> F  </i>
   <i type="logical" name="LTETE"> F  </i>
   <i type="logical" name="LTRIPLET"> F  </i>
   <i type="logical" name="LFXCEPS"> F  </i>
   <i type="logical" name="LFXHEG"> F  </i>
   <i type="int" name="NATURALO">     2</i>
   <i type="logical" name="L2ORDER"> F  </i>
   <i type="logical" name="LMP2LT"> F  </i>
   <i type="logical" name="LUSEW"> F  </i>
   <i name="ENCUTGW">     -2.00000000</i>
   <i name="ENCUTGWSOFT">     -2.00000000</i>
   <i name="ENCUTLF">     -1.00000000</i>
   <i type="int" name="LMAXMP2">    -1</i>
   <i name="SCISSOR">      0.00000000</i>
   <i type="int" name="NOMEGA">     0</i>
   <i type="int" name="NOMEGAR">     0</i>
   <i type="int" name="NBANDSGW">    -1</i>
   <i type="int" name="NBANDSO">    -1</i>
   <i type="int" name="NBANDSV">    -1</i>
   <i type="int" name="NELM">   300</i>
   <i type="int" name="NELMHF">     1</i>
   <i type="int" name="DIM">     3</i>
   <i type="int" name="ANTIRES">     0</i>
   <i name="OMEGAMAX">    -30.00000000</i>
   <i name="OMEGAMIN">    -30.00000000</i>
   <i name="OMEGATL">   -200.00000000</i>
   <i type="int" name="OMEGAGRID">   140</i>
   <i name="CSHIFT">     -0.10000000</i>
   <i type="logical" name="SELFENERGY"> F  </i>
   <i type="logical" name="LSPECTRAL"> F  </i>
   <i type="logical" name="LSPECTRALGW"> F  </i>
   <i type="logical" name="LSINGLES"> F  </i>
   <i type="logical" name="LFERMIGW"> F  </i>
   <i type="logical" name="ODDONLYGW"> F  </i>
   <i type="logical" name="EVENONLYGW"> F  </i>
   <i type="int" name="NKREDLFX">     1</i>
   <i type="int" name="NKREDLFY">     1</i>
   <i type="int" name="NKREDLFZ">     1</i>
   <i type="int" name="MAXMEM">  2800</i>
   <i type="int" name="TELESCOPE">     0</i>
   <i type="int" name="TAUPAR">     1</i>
   <i type="int" name="OMEGAPAR">    -1</i>
   <i name="LAMBDA">      1.00000000</i>
  </separator>
  <separator name="External order field" >
   <i name="OFIELD_KAPPA">      0.00000000</i>
   <v name="OFIELD_K">      0.00000000      0.00000000      0.00000000</v>
   <i name="OFIELD_Q6_NEAR">      0.00000000</i>
   <i name="OFIELD_Q6_FAR">      0.00000000</i>
   <i name="OFIELD_A">      0.00000000</i>
  </separator>
 </parameters>
 <atominfo>
  <atoms>      63 </atoms>
  <types>       3 </types>
  <array name="atoms" >
   <dimension dim="1">ion</dimension>
   <field type="string">element</field>
   <field type="int">atomtype</field>
   <set>
    <rc><c>Mg</c><c>   1</c></rc>
    <rc><c>Mg</c><c>   1</c></rc>
    <rc><c>Mg</c><c>   1</c></rc>
    <rc><c>Mg</c><c>   1</c></rc>
    <rc><c>Mg</c><c>   1</c></rc>
    <rc><c>Mg</c><c>   1</c></rc>
    <rc><c>Mg</c><c>   1</c></rc>
    <rc><c>Mg</c><c>   1</c></rc>
    <rc><c>Mg</c><c>   1</c></rc>
    <rc><c>Mg</c><c>   1</c></rc>
    <rc><c>Mg</c><c>   1</c></rc>
    <rc><c>Mg</c><c>   1</c></rc>
    <rc><c>Mg</c><c>   1</c></rc>
    <rc><c>Mg</c><c>   1</c></rc>
    <rc><c>Mg</c><c>   1</c></rc>
    <rc><c>Mg</c><c>   1</c></rc>
    <rc><c>Mg</c><c>   1</c></rc>
    <rc><c>Mg</c><c>   1</c></rc>
    <rc><c>Mg</c><c>   1</c></rc>
    <rc><c>Mg</c><c>   1</c></rc>
    <rc><c>Mg</c><c>   1</c></rc>
    <rc><c>Mg</c><c>   1</c></rc>
    <rc><c>Mg</c><c>   1</c></rc>
    <rc><c>Mg</c><c>   1</c></rc>
    <rc><c>Mg</c><c>   1</c></rc>
    <rc><c>Mg</c><c>   1</c></rc>
    <rc><c>Mg</c><c>   1</c></rc>
    <rc><c>Mg</c><c>   1</c></rc>
    <rc><c>Mg</c><c>   1</c></rc>
    <rc><c>Mg</c><c>   1</c></rc>
    <rc><c>Mg</c><c>   1</c></rc>
    <rc><c>Mg</c><c>   1</c></rc>
    <rc><c>Mg</c><c>   1</c></rc>
    <rc><c>Mg</c><c>   1</c></rc>
    <rc><c>Mg</c><c>   1</c></rc>
    <rc><c>Mg</c><c>   1</c></rc>
    <rc><c>Mg</c><c>   1</c></rc>
    <rc><c>Mg</c><c>   1</c></rc>
    <rc><c>Mg</c><c>   1</c></rc>
    <rc><c>Mg</c><c>   1</c></rc>
    <rc><c>Mg</c><c>   1</c></rc>
    <rc><c>Mg</c><c>   1</c></rc>
    <rc><c>Mg</c><c>   1</c></rc>
    <rc><c>Mg</c><c>   1</c></rc>
    <rc><c>Mg</c><c>   1</c></rc>
    <rc><c>O </c><c>   2</c></rc>
    <rc><c>O </c><c>   2</c></rc>
    <rc><c>O </c><c>   2</c></rc>
    <rc><c>O </c><c>   2</c></rc>
    <rc><c>O </c><c>   2</c></rc>
    <rc><c>O </c><c>   2</c></rc>
    <rc><c>H </c><c>   3</c></rc>
    <rc><c>H </c><c>   3</c></rc>
    <rc><c>H </c><c>   3</c></rc>
    <rc><c>H </c><c>   3</c></rc>
    <rc><c>H </c><c>   3</c></rc>
    <rc><c>H </c><c>   3</c></rc>
    <rc><c>H </c><c>   3</c></rc>
    <rc><c>H </c><c>   3</c></rc>
    <rc><c>H </c><c>   3</c></rc>
    <rc><c>H </c><c>   3</c></rc>
    <rc><c>H </c><c>   3</c></rc>
    <rc><c>H </c><c>   3</c></rc>
   </set>
  </array>
  <array name="atomtypes" >
   <dimension dim="1">type</dimension>
   <field type="int">atomspertype</field>
   <field type="string">element</field>
   <field>mass</field>
   <field>valence</field>
   <field type="string">pseudopotential</field>
   <set>
    <rc><c>  45</c><c>Mg</c><c>     24.30500000</c><c>      2.00000000</c><c>  PAW_PBE Mg 13Apr2007                  </c></rc>
    <rc><c>   6</c><c>O </c><c>     16.00000000</c><c>      6.00000000</c><c>  PAW_PBE O 08Apr2002                   </c></rc>
    <rc><c>  12</c><c>H </c><c>      1.00000000</c><c>      1.00000000</c><c>  PAW_PBE H 15Jun2001                   </c></rc>
   </set>
  </array>
 </atominfo>
 <structure name="initialpos" >
  <crystal>
   <varray name="basis" >
    <v>       9.55575275       0.00000000       0.00000000 </v>
    <v>      -4.77787638       8.27552464       0.00000000 </v>
    <v>       0.00000000       0.00000000      32.62509537 </v>
   </varray>
   <i name="volume">   2579.95558872 </i>
   <varray name="rec_basis" >
    <v>       0.10464900       0.06041913       0.00000000 </v>
    <v>       0.00000000       0.12083826       0.00000000 </v>
    <v>       0.00000000       0.00000000       0.03065125 </v>
   </varray>
  </crystal>
  <varray name="positions" >
   <v>       0.00000000       0.00000000       0.00000000 </v>
   <v>       0.99950246       0.99984916       0.15793135 </v>
   <v>       0.00073518       0.00208950       0.32961268 </v>
   <v>       0.00000001       0.33333336       0.00000000 </v>
   <v>       0.00024890       0.33282032       0.15737408 </v>
   <v>       0.99630881       0.33207080       0.30980494 </v>
   <v>       0.00000002       0.66666672       0.00000000 </v>
   <v>       0.99898313       0.66460687       0.15731243 </v>
   <v>       0.00259023       0.66973432       0.31300643 </v>
   <v>       0.33333334       0.00000000       0.00000000 </v>
   <v>       0.33403163       0.99987119       0.15710460 </v>
   <v>       0.32751755       0.99728173       0.30797920 </v>
   <v>       0.33333335       0.33333336       0.00000000 </v>
   <v>       0.33354361       0.33346128       0.15762686 </v>
   <v>       0.32449574       0.33291576       0.31330002 </v>
   <v>       0.33333336       0.66666672       0.00000000 </v>
   <v>       0.33335948       0.66598676       0.15821103 </v>
   <v>       0.32248510       0.66363569       0.33016693 </v>
   <v>       0.66666668       0.00000000       0.00000000 </v>
   <v>       0.66644575       0.99844432       0.15720850 </v>
   <v>       0.66480878       0.99507716       0.31290626 </v>
   <v>       0.66666668       0.33333336       0.00000000 </v>
   <v>       0.66630330       0.33320479       0.15824308 </v>
   <v>       0.66110860       0.31800814       0.32212712 </v>
   <v>       0.66666670       0.66666672       0.00000000 </v>
   <v>       0.66735317       0.66589110       0.15843395 </v>
   <v>       0.67489435       0.66968117       0.31512586 </v>
   <v>       0.11111113       0.22222222       0.07982145 </v>
   <v>       0.11033931       0.21767615       0.23580067 </v>
   <v>       0.11111114       0.55555561       0.07982145 </v>
   <v>       0.11548917       0.55804154       0.23578559 </v>
   <v>       0.11111116       0.88888894       0.07982145 </v>
   <v>       0.10798744       0.88637572       0.23352360 </v>
   <v>       0.44444450       0.22222222       0.07982145 </v>
   <v>       0.44645421       0.22537145       0.23551864 </v>
   <v>       0.44444450       0.55555561       0.07982145 </v>
   <v>       0.44530173       0.55791172       0.23690488 </v>
   <v>       0.44444451       0.88888894       0.07982145 </v>
   <v>       0.44423985       0.88512214       0.23513446 </v>
   <v>       0.77777779       0.22222222       0.07982145 </v>
   <v>       0.77392725       0.21911310       0.23446130 </v>
   <v>       0.77777781       0.55555561       0.07982145 </v>
   <v>       0.77574788       0.54993343       0.23758911 </v>
   <v>       0.77777784       0.88888894       0.07982145 </v>
   <v>       0.78118930       0.88845676       0.23693514 </v>
   <v>       0.99141534       0.00815999       0.39619636 </v>
   <v>       0.27692298       0.97174481       0.41174998 </v>
   <v>       0.89507143       0.25017864       0.41115727 </v>
   <v>       0.63843350       0.32154151       0.38882014 </v>
   <v>       0.61817684       0.59932718       0.38251324 </v>
   <v>       0.29979894       0.69286022       0.39665373 </v>
   <v>       0.97094046       0.09141797       0.40809408 </v>
   <v>       0.08207643       0.01015987       0.41107789 </v>
   <v>       0.38164910       0.07270335       0.41173490 </v>
   <v>       0.24632045       0.95753716       0.38199373 </v>
   <v>       0.99452681       0.35513592       0.40814389 </v>
   <v>       0.86344932       0.21635091       0.38189830 </v>
   <v>       0.64345979       0.42510723       0.39546197 </v>
   <v>       0.72557075       0.31662056       0.40386133 </v>
   <v>       0.65100566       0.69860704       0.39839395 </v>
   <v>       0.50193118       0.55532573       0.37310002 </v>
   <v>       0.29896032       0.79161455       0.40622361 </v>
   <v>       0.35614594       0.66623033       0.41749063 </v>
  </varray>
  <varray name="selective"  type="logical" >
   <v type="logical" >  F  F  F </v>
   <v type="logical" >  T  T  T </v>
   <v type="logical" >  T  T  T </v>
   <v type="logical" >  F  F  F </v>
   <v type="logical" >  T  T  T </v>
   <v type="logical" >  T  T  T </v>
   <v type="logical" >  F  F  F </v>
   <v type="logical" >  T  T  T </v>
   <v type="logical" >  T  T  T </v>
   <v type="logical" >  F  F  F </v>
   <v type="logical" >  T  T  T </v>
   <v type="logical" >  T  T  T </v>
   <v type="logical" >  F  F  F </v>
   <v type="logical" >  T  T  T </v>
   <v type="logical" >  T  T  T </v>
   <v type="logical" >  F  F  F </v>
   <v type="logical" >  T  T  T </v>
   <v type="logical" >  T  T  T </v>
   <v type="logical" >  F  F  F </v>
   <v type="logical" >  T  T  T </v>
   <v type="logical" >  T  T  T </v>
   <v type="logical" >  F  F  F </v>
   <v type="logical" >  T  T  T </v>
   <v type="logical" >  T  T  T </v>
   <v type="logical" >  F  F  F </v>
   <v type="logical" >  T  T  T </v>
   <v type="logical" >  T  T  T </v>
   <v type="logical" >  F  F  F </v>
   <v type="logical" >  T  T  T </v>
   <v type="logical" >  F  F  F </v>
   <v type="logical" >  T  T  T </v>
   <v type="logical" >  F  F  F </v>
   <v type="logical" >  T  T  T </v>
   <v type="logical" >  F  F  F </v>
   <v type="logical" >  T  T  T </v>
   <v type="logical" >  F  F  F </v>
   <v type="logical" >  T  T  T </v>
   <v type="logical" >  F  F  F </v>
   <v type="logical" >  T  T  T </v>
   <v type="logical" >  F  F  F </v>
   <v type="logical" >  T  T  T </v>
   <v type="logical" >  F  F  F </v>
   <v type="logical" >  T  T  T </v>
   <v type="logical" >  F  F  F </v>
   <v type="logical" >  T  T  T </v>
   <v type="logical" >  T  T  T </v>
   <v type="logical" >  T  T  T </v>
   <v type="logical" >  T  T  T </v>
   <v type="logical" >  T  T  T </v>
   <v type="logical" >  T  T  T </v>
   <v type="logical" >  T  T  T </v>
   <v type="logical" >  T  T  T </v>
   <v type="logical" >  T  T  T </v>
   <v type="logical" >  T  T  T </v>
   <v type="logical" >  T  T  T </v>
   <v type="logical" >  T  T  T </v>
   <v type="logical" >  T  T  T </v>
   <v type="logical" >  T  T  T </v>
   <v type="logical" >  T  T  T </v>
   <v type="logical" >  T  T  T </v>
   <v type="logical" >  T  T  T </v>
   <v type="logical" >  T  T  T </v>
   <v type="logical" >  T  T  T </v>
  </varray>
  <nose>
   <v>      -3.00000000       0.00000000       0.00010000       0.00010000 </v>
  </nose>
 </structure>
 <calculation>
  <scstep>
   <time name="diag">    0.48    0.48</time>
   <time name="diis">    1.05    1.05</time>
   <time name="orth">    0.07    0.07</time>
   <time name="total">    7.57    7.71</time>
   <dipole>
    <v name="dipole">      0.00000000       0.00000000      -0.00039838 </v>
    <i name="Tr[quadrupol]">  -1881.18342200 </i>
    <i name="Echarged">      0.00000000 </i>
    <i name="Edipol_quadrupol">      0.00000000 </i>
    <i name="Eion">      0.00000000 </i>
   </dipole>
   <energy>
    <i name="alphaZ">     63.16529571 </i>
    <i name="ewald">  13034.84326206 </i>
    <i name="hartreedc"> -16257.05873685 </i>
    <i name="XCdc">  -2050.63283606 </i>
    <i name="pawpsdc">   5135.15659847 </i>
    <i name="pawaedc">  -2719.01140655 </i>
    <i name="eentropy">      0.00000000 </i>
    <i name="bandstr">    212.04440802 </i>
    <i name="atom">   3827.98814510 </i>
    <i name="e_fr_energy">   1246.49472991 </i>
    <i name="e_wo_entrp">   1246.49472991 </i>
    <i name="e_0_energy">   1246.49472991 </i>
   </energy>
  </scstep>
  <scstep>
   <time name="diag">    0.49    0.51</time>
   <time name="diis">    1.05    1.05</time>
   <time name="orth">    0.07    0.07</time>
   <time name="total">    1.61    1.63</time>
   <dipole>
    <v name="dipole">      0.00000000       0.00000000      -0.00039838 </v>
    <i name="Tr[quadrupol]">  -1881.18342200 </i>
    <i name="Echarged">      0.00000000 </i>
    <i name="Edipol_quadrupol">      0.00000000 </i>
    <i name="Eion">      0.00000000 </i>
   </dipole>
   <energy>
    <i name="e_fr_energy">    547.86635315 </i>
    <i name="e_wo_entrp">    547.86635315 </i>
    <i name="e_0_energy">    547.86635315 </i>
   </energy>
  </scstep>
  <scstep>
   <time name="diag">    0.49    0.51</time>
   <time name="diis">    1.05    1.05</time>
   <time name="orth">    0.07    0.07</time>
   <time name="total">    1.61    1.63</time>
   <dipole>
    <v name="dipole">      0.00000000       0.00000000      -0.00039838 </v>
    <i name="Tr[quadrupol]">  -1881.18342200 </i>
    <i name="Echarged">      0.00000000 </i>
    <i name="Edipol_quadrupol">      0.00000000 </i>
    <i name="Eion">      0.00000000 </i>
   </dipole>
   <energy>
    <i name="e_fr_energy">    312.33389673 </i>
    <i name="e_wo_entrp">    312.33389673 </i>
    <i name="e_0_energy">    312.33389673 </i>
   </energy>
  </scstep>
  <scstep>
   <time name="diag">    0.49    0.51</time>
   <time name="diis">    1.05    1.05</time>
   <time name="orth">    0.07    0.07</time>
   <time name="total">    1.60    1.63</time>
   <dipole>
    <v name="dipole">      0.00000000       0.00000000      -0.00039838 </v>
    <i name="Tr[quadrupol]">  -1881.18342200 </i>
    <i name="Echarged">      0.00000000 </i>
    <i name="Edipol_quadrupol">      0.00000000 </i>
    <i name="Eion">      0.00000000 </i>
   </dipole>
   <energy>
    <i name="e_fr_energy">    137.05385888 </i>
    <i name="e_wo_entrp">    137.05385888 </i>
    <i name="e_0_energy">    137.05385888 </i>
   </energy>
  </scstep>
  <scstep>
   <time name="diag">    0.49    0.51</time>
   <time name="diis">    1.05    1.05</time>
   <time name="orth">    0.07    0.07</time>
   <time name="total">    1.61    1.64</time>
   <dipole>
    <v name="dipole">      0.00000000       0.00000000      -0.00039838 </v>
    <i name="Tr[quadrupol]">  -1881.18342200 </i>
    <i name="Echarged">      0.00000000 </i>
    <i name="Edipol_quadrupol">      0.00000000 </i>
    <i name="Eion">      0.00000000 </i>
   </dipole>
   <energy>
    <i name="e_fr_energy">     19.72067711 </i>
    <i name="e_wo_entrp">     19.72067711 </i>
    <i name="e_0_energy">     19.72067711 </i>
   </energy>
  </scstep>
  <scstep>
   <time name="diag">    0.49    0.52</time>
   <time name="diis">    1.06    1.06</time>
   <time name="orth">    0.07    0.07</time>
   <time name="total">    1.63    1.65</time>
   <dipole>
    <v name="dipole">      0.00000000       0.00000000      -0.00039838 </v>
    <i name="Tr[quadrupol]">  -1881.18342200 </i>
    <i name="Echarged">      0.00000000 </i>
    <i name="Edipol_quadrupol">      0.00000000 </i>
    <i name="Eion">      0.00000000 </i>
   </dipole>
   <energy>
    <i name="e_fr_energy">    -44.13904559 </i>
    <i name="e_wo_entrp">    -44.13904559 </i>
    <i name="e_0_energy">    -44.13904559 </i>
   </energy>
  </scstep>
  <scstep>
   <time name="diag">    0.49    0.51</time>
   <time name="diis">    1.05    1.05</time>
   <time name="orth">    0.07    0.07</time>
   <time name="total">    1.61    1.64</time>
   <dipole>
    <v name="dipole">      0.00000000       0.00000000      -0.00039838 </v>
    <i name="Tr[quadrupol]">  -1881.18342200 </i>
    <i name="Echarged">      0.00000000 </i>
    <i name="Edipol_quadrupol">      0.00000000 </i>
    <i name="Eion">      0.00000000 </i>
   </dipole>
   <energy>
    <i name="e_fr_energy">    -69.03007700 </i>
    <i name="e_wo_entrp">    -69.03007700 </i>
    <i name="e_0_energy">    -69.03007700 </i>
   </energy>
  </scstep>
  <scstep>
   <time name="diag">    0.48    0.51</time>
   <time name="diis">    1.05    1.05</time>
   <time name="orth">    0.07    0.07</time>
   <time name="total">    1.61    1.63</time>
   <dipole>
    <v name="dipole">      0.00000000       0.00000000      -0.00039838 </v>
    <i name="Tr[quadrupol]">  -1881.18342200 </i>
    <i name="Echarged">      0.00000000 </i>
    <i name="Edipol_quadrupol">      0.00000000 </i>
    <i name="Eion">      0.00000000 </i>
   </dipole>
   <energy>
    <i name="e_fr_energy">    -75.58777229 </i>
    <i name="e_wo_entrp">    -75.58777229 </i>
    <i name="e_0_energy">    -75.58777229 </i>
   </energy>
  </scstep>
  <scstep>
   <time name="diag">    0.48    0.51</time>
   <time name="diis">    2.80    2.80</time>
   <time name="orth">    0.07    0.07</time>
   <time name="total">    3.36    3.38</time>
   <dipole>
    <v name="dipole">      0.00000000       0.00000000      -0.00039838 </v>
    <i name="Tr[quadrupol]">  -1881.18342200 </i>
    <i name="Echarged">      0.00000000 </i>
    <i name="Edipol_quadrupol">      0.00000000 </i>
    <i name="Eion">      0.00000000 </i>
   </dipole>
   <energy>
    <i name="e_fr_energy">    -77.74591417 </i>
    <i name="e_wo_entrp">    -77.74591417 </i>
    <i name="e_0_energy">    -77.74591417 </i>
   </energy>
  </scstep>
  <scstep>
   <time name="diag">    0.49    0.51</time>
   <time name="diis">    3.22    3.22</time>
   <time name="orth">    0.07    0.07</time>
   <time name="total">    3.78    3.81</time>
   <dipole>
    <v name="dipole">      0.00000000       0.00000000      -0.00039838 </v>
    <i name="Tr[quadrupol]">  -1881.18342200 </i>
    <i name="Echarged">      0.00000000 </i>
    <i name="Edipol_quadrupol">      0.00000000 </i>
    <i name="Eion">      0.00000000 </i>
   </dipole>
   <energy>
    <i name="e_fr_energy">    -78.04222919 </i>
    <i name="e_wo_entrp">    -78.04222919 </i>
    <i name="e_0_energy">    -78.04222919 </i>
   </energy>
  </scstep>
  <scstep>
   <time name="diag">    0.49    0.51</time>
   <time name="diis">    3.16    3.16</time>
   <time name="orth">    0.07    0.07</time>
   <time name="total">    3.72    3.75</time>
   <dipole>
    <v name="dipole">      0.00000000       0.00000000      -0.00039838 </v>
    <i name="Tr[quadrupol]">  -1881.18342200 </i>
    <i name="Echarged">      0.00000000 </i>
    <i name="Edipol_quadrupol">      0.00000000 </i>
    <i name="Eion">      0.00000000 </i>
   </dipole>
   <energy>
    <i name="e_fr_energy">    -78.04684937 </i>
    <i name="e_wo_entrp">    -78.04684937 </i>
    <i name="e_0_energy">    -78.04684937 </i>
   </energy>
  </scstep>
  <scstep>
   <time name="diag">    0.49    0.51</time>
   <time name="diis">    3.27    3.27</time>
   <time name="orth">    0.07    0.07</time>
   <time name="total">    3.96    3.98</time>
   <dipole>
    <v name="dipole">      0.00000000       0.00000000      -0.00039838 </v>
    <i name="Tr[quadrupol]">  -1881.18342200 </i>
    <i name="Echarged">      0.00000000 </i>
    <i name="Edipol_quadrupol">      0.00000000 </i>
    <i name="Eion">      0.00000000 </i>
   </dipole>
   <energy>
    <i name="e_fr_energy">    -78.04977777 </i>
    <i name="e_wo_entrp">    -78.04977777 </i>
    <i name="e_0_energy">    -78.04977777 </i>
   </energy>
  </scstep>
  <scstep>
   <time name="diag">    0.48    0.48</time>
   <time name="diis">    2.59    2.59</time>
   <time name="orth">    0.07    0.07</time>
   <time name="total">    8.57    8.60</time>
   <dipole>
    <v name="dipole">      0.00000000       0.00000000       0.18185563 </v>
    <i name="Tr[quadrupol]">  -1893.25988900 </i>
    <i name="Echarged">      0.00000000 </i>
    <i name="Edipol_quadrupol">      0.00000000 </i>
    <i name="Eion">      0.00000000 </i>
   </dipole>
   <energy>
    <i name="e_fr_energy">    -68.27585698 </i>
    <i name="e_wo_entrp">    -68.27585698 </i>
    <i name="e_0_energy">    -68.27585698 </i>
   </energy>
  </scstep>
  <scstep>
   <time name="diag">    0.47    0.47</time>
   <time name="diis">    2.90    2.90</time>
   <time name="orth">    0.07    0.07</time>
   <time name="total">    8.84    8.87</time>
   <dipole>
    <v name="dipole">      0.00000000       0.00000000      -1.31240712 </v>
    <i name="Tr[quadrupol]">  -1884.75674854 </i>
    <i name="Echarged">      0.00000000 </i>
    <i name="Edipol_quadrupol">      0.00000000 </i>
    <i name="Eion">      0.00000000 </i>
   </dipole>
   <energy>
    <i name="e_fr_energy">    -76.00124806 </i>
    <i name="e_wo_entrp">    -76.00124806 </i>
    <i name="e_0_energy">    -76.00124806 </i>
   </energy>
  </scstep>
  <scstep>
   <time name="diag">    0.48    0.48</time>
   <time name="diis">    2.63    2.63</time>
   <time name="orth">    0.07    0.07</time>
   <time name="total">    8.37    8.40</time>
   <dipole>
    <v name="dipole">      0.00000000       0.00000000       0.06660368 </v>
    <i name="Tr[quadrupol]">  -1893.25643853 </i>
    <i name="Echarged">      0.00000000 </i>
    <i name="Edipol_quadrupol">      0.00000000 </i>
    <i name="Eion">      0.00000000 </i>
   </dipole>
   <energy>
    <i name="e_fr_energy">    -68.32778797 </i>
    <i name="e_wo_entrp">    -68.32778797 </i>
    <i name="e_0_energy">    -68.32778797 </i>
   </energy>
  </scstep>
  <scstep>
   <time name="diag">    0.48    0.48</time>
   <time name="diis">    2.86    2.86</time>
   <time name="orth">    0.07    0.07</time>
   <time name="total">    8.60    8.63</time>
   <dipole>
    <v name="dipole">      0.00000000       0.00000000      -0.27816666 </v>
    <i name="Tr[quadrupol]">  -1896.60279240 </i>
    <i name="Echarged">      0.00000000 </i>
    <i name="Edipol_quadrupol">      0.00000000 </i>
    <i name="Eion">      0.00000000 </i>
   </dipole>
   <energy>
    <i name="e_fr_energy">    -67.70933837 </i>
    <i name="e_wo_entrp">    -67.70933837 </i>
    <i name="e_0_energy">    -67.70933837 </i>
   </energy>
  </scstep>
  <scstep>
   <time name="diag">    0.47    0.47</time>
   <time name="diis">    2.47    2.47</time>
   <time name="orth">    0.07    0.07</time>
   <time name="total">    8.21    8.24</time>
   <dipole>
    <v name="dipole">      0.00000000       0.00000000      -0.44886488 </v>
    <i name="Tr[quadrupol]">  -1896.01432291 </i>
    <i name="Echarged">      0.00000000 </i>
    <i name="Edipol_quadrupol">      0.00000000 </i>
    <i name="Eion">      0.00000000 </i>
   </dipole>
   <energy>
    <i name="e_fr_energy">    -67.56669771 </i>
    <i name="e_wo_entrp">    -67.56669771 </i>
    <i name="e_0_energy">    -67.56669771 </i>
   </energy>
  </scstep>
  <scstep>
   <time name="diag">    0.48    0.48</time>
   <time name="diis">    3.00    3.00</time>
   <time name="orth">    0.07    0.07</time>
   <time name="total">    8.74    8.77</time>
   <dipole>
    <v name="dipole">      0.00000000       0.00000000      -0.52380542 </v>
    <i name="Tr[quadrupol]">  -1896.66489834 </i>
    <i name="Echarged">      0.00000000 </i>
    <i name="Edipol_quadrupol">      0.00000000 </i>
    <i name="Eion">      0.00000000 </i>
   </dipole>
   <energy>
    <i name="e_fr_energy">    -67.55169736 </i>
    <i name="e_wo_entrp">    -67.55169736 </i>
    <i name="e_0_energy">    -67.55169736 </i>
   </energy>
  </scstep>
  <scstep>
   <time name="diag">    0.48    0.48</time>
   <time name="diis">    2.62    2.62</time>
   <time name="orth">    0.07    0.07</time>
   <time name="total">    8.38    8.40</time>
   <dipole>
    <v name="dipole">      0.00000000       0.00000000      -0.54179964 </v>
    <i name="Tr[quadrupol]">  -1897.73438504 </i>
    <i name="Echarged">      0.00000000 </i>
    <i name="Edipol_quadrupol">      0.00000000 </i>
    <i name="Eion">      0.00000000 </i>
   </dipole>
   <energy>
    <i name="e_fr_energy">    -67.55077607 </i>
    <i name="e_wo_entrp">    -67.55077607 </i>
    <i name="e_0_energy">    -67.55077607 </i>
   </energy>
  </scstep>
  <scstep>
   <time name="diag">    0.48    0.48</time>
   <time name="diis">    2.81    2.81</time>
   <time name="orth">    0.07    0.07</time>
   <time name="total">    8.55    8.58</time>
   <dipole>
    <v name="dipole">      0.00000000       0.00000000      -0.54130592 </v>
    <i name="Tr[quadrupol]">  -1898.33309021 </i>
    <i name="Echarged">      0.00000000 </i>
    <i name="Edipol_quadrupol">      0.00000000 </i>
    <i name="Eion">      0.00000000 </i>
   </dipole>
   <energy>
    <i name="e_fr_energy">    -67.55137548 </i>
    <i name="e_wo_entrp">    -67.55137548 </i>
    <i name="e_0_energy">    -67.55137548 </i>
   </energy>
  </scstep>
  <scstep>
   <time name="diag">    0.48    0.48</time>
   <time name="diis">    2.78    2.79</time>
   <time name="orth">    0.07    0.07</time>
   <time name="total">    8.53    8.56</time>
   <dipole>
    <v name="dipole">      0.00000000       0.00000000      -0.54217994 </v>
    <i name="Tr[quadrupol]">  -1898.72039796 </i>
    <i name="Echarged">      0.00000000 </i>
    <i name="Edipol_quadrupol">      0.00000000 </i>
    <i name="Eion">      0.00000000 </i>
   </dipole>
   <energy>
    <i name="e_fr_energy">    -67.54969149 </i>
    <i name="e_wo_entrp">    -67.54969149 </i>
    <i name="e_0_energy">    -67.54969149 </i>
   </energy>
  </scstep>
  <scstep>
   <time name="diag">    0.48    0.48</time>
   <time name="diis">    2.45    2.45</time>
   <time name="orth">    0.07    0.07</time>
   <time name="total">    8.19    8.22</time>
   <dipole>
    <v name="dipole">      0.00000000       0.00000000      -0.52974382 </v>
    <i name="Tr[quadrupol]">  -1899.18641636 </i>
    <i name="Echarged">      0.00000000 </i>
    <i name="Edipol_quadrupol">      0.00000000 </i>
    <i name="Eion">      0.00000000 </i>
   </dipole>
   <energy>
    <i name="e_fr_energy">    -67.54196604 </i>
    <i name="e_wo_entrp">    -67.54196604 </i>
    <i name="e_0_energy">    -67.54196604 </i>
   </energy>
  </scstep>
  <scstep>
   <time name="diag">    0.48    0.48</time>
   <time name="diis">    2.43    2.44</time>
   <time name="orth">    0.07    0.07</time>
   <time name="total">    8.20    8.23</time>
   <dipole>
    <v name="dipole">      0.00000000       0.00000000      -0.52135429 </v>
    <i name="Tr[quadrupol]">  -1899.37756177 </i>
    <i name="Echarged">      0.00000000 </i>
    <i name="Edipol_quadrupol">      0.00000000 </i>
    <i name="Eion">      0.00000000 </i>
   </dipole>
   <energy>
    <i name="e_fr_energy">    -67.53974942 </i>
    <i name="e_wo_entrp">    -67.53974942 </i>
    <i name="e_0_energy">    -67.53974942 </i>
   </energy>
  </scstep>
  <scstep>
   <time name="diag">    0.48    0.48</time>
   <time name="diis">    2.14    2.14</time>
   <time name="orth">    0.07    0.07</time>
   <time name="total">    8.11    8.14</time>
   <dipole>
    <v name="dipole">      0.00000000       0.00000000      -0.51137138 </v>
    <i name="Tr[quadrupol]">  -1899.53851150 </i>
    <i name="Echarged">      0.00000000 </i>
    <i name="Edipol_quadrupol">      0.00000000 </i>
    <i name="Eion">      0.00000000 </i>
   </dipole>
   <energy>
    <i name="e_fr_energy">    -67.54066931 </i>
    <i name="e_wo_entrp">    -67.54066931 </i>
    <i name="e_0_energy">    -67.54066931 </i>
   </energy>
  </scstep>
  <scstep>
   <time name="diag">    0.47    0.48</time>
   <time name="diis">    2.08    2.08</time>
   <time name="orth">    0.07    0.07</time>
   <time name="total">    7.82    7.85</time>
   <dipole>
    <v name="dipole">      0.00000000       0.00000000      -0.50297724 </v>
    <i name="Tr[quadrupol]">  -1899.62396823 </i>
    <i name="Echarged">      0.00000000 </i>
    <i name="Edipol_quadrupol">      0.00000000 </i>
    <i name="Eion">      0.00000000 </i>
   </dipole>
   <energy>
    <i name="e_fr_energy">    -67.54102891 </i>
    <i name="e_wo_entrp">    -67.54102891 </i>
    <i name="e_0_energy">    -67.54102891 </i>
   </energy>
  </scstep>
  <scstep>
   <time name="diag">    0.48    0.48</time>
   <time name="diis">    1.99    1.99</time>
   <time name="orth">    0.07    0.07</time>
   <time name="total">    7.73    7.76</time>
   <dipole>
    <v name="dipole">      0.00000000       0.00000000      -0.50030588 </v>
    <i name="Tr[quadrupol]">  -1899.62056906 </i>
    <i name="Echarged">      0.00000000 </i>
    <i name="Edipol_quadrupol">      0.00000000 </i>
    <i name="Eion">      0.00000000 </i>
   </dipole>
   <energy>
    <i name="e_fr_energy">    -67.54085146 </i>
    <i name="e_wo_entrp">    -67.54085146 </i>
    <i name="e_0_energy">    -67.54085146 </i>
   </energy>
  </scstep>
  <scstep>
   <time name="diag">    0.48    0.48</time>
   <time name="diis">    1.98    1.98</time>
   <time name="orth">    0.07    0.07</time>
   <time name="total">    7.74    7.76</time>
   <dipole>
    <v name="dipole">      0.00000000       0.00000000      -0.49641178 </v>
    <i name="Tr[quadrupol]">  -1899.67733084 </i>
    <i name="Echarged">      0.00000000 </i>
    <i name="Edipol_quadrupol">      0.00000000 </i>
    <i name="Eion">      0.00000000 </i>
   </dipole>
   <energy>
    <i name="e_fr_energy">    -67.54068847 </i>
    <i name="e_wo_entrp">    -67.54068847 </i>
    <i name="e_0_energy">    -67.54068847 </i>
   </energy>
  </scstep>
  <scstep>
   <time name="diag">    0.48    0.48</time>
   <time name="diis">    1.68    1.69</time>
   <time name="orth">    0.07    0.07</time>
   <time name="total">    7.31    7.34</time>
   <dipole>
    <v name="dipole">      0.00000000       0.00000000      -0.49557520 </v>
    <i name="Tr[quadrupol]">  -1899.67397996 </i>
    <i name="Echarged">      0.00000000 </i>
    <i name="Edipol_quadrupol">      0.00000000 </i>
    <i name="Eion">      0.00000000 </i>
   </dipole>
   <energy>
    <i name="alphaZ">     62.15800225 </i>
    <i name="ewald">  13034.84326206 </i>
    <i name="hartreedc"> -16491.16773482 </i>
    <i name="XCdc">  -2035.05069263 </i>
    <i name="pawpsdc">   5987.08427334 </i>
    <i name="pawaedc">  -3573.30561167 </i>
    <i name="eentropy">      0.00000000 </i>
    <i name="bandstr">   -880.09032976 </i>
    <i name="atom">   3827.98814510 </i>
    <i name="e_fr_energy">    -67.54068612 </i>
    <i name="e_wo_entrp">    -67.54068612 </i>
    <i name="e_0_energy">    -67.54068612 </i>
   </energy>
  </scstep>
  <structure>
   <crystal>
    <varray name="basis" >
     <v>       9.55575275       0.00000000       0.00000000 </v>
     <v>      -4.77787638       8.27552464       0.00000000 </v>
     <v>       0.00000000       0.00000000      32.62509537 </v>
    </varray>
    <i name="volume">   2579.95558872 </i>
    <varray name="rec_basis" >
     <v>       0.10464900       0.06041913       0.00000000 </v>
     <v>       0.00000000       0.12083826       0.00000000 </v>
     <v>       0.00000000       0.00000000       0.03065125 </v>
    </varray>
   </crystal>
   <varray name="positions" >
    <v>       0.00000000       0.00000000       0.00000000 </v>
    <v>       0.99950246       0.99984916       0.15793135 </v>
    <v>       0.00073518       0.00208950       0.32961268 </v>
    <v>       0.00000001       0.33333336       0.00000000 </v>
    <v>       0.00024890       0.33282032       0.15737408 </v>
    <v>       0.99630881       0.33207080       0.30980494 </v>
    <v>       0.00000002       0.66666672       0.00000000 </v>
    <v>       0.99898313       0.66460687       0.15731243 </v>
    <v>       0.00259023       0.66973432       0.31300643 </v>
    <v>       0.33333334       0.00000000       0.00000000 </v>
    <v>       0.33403163       0.99987119       0.15710460 </v>
    <v>       0.32751755       0.99728173       0.30797920 </v>
    <v>       0.33333335       0.33333336       0.00000000 </v>
    <v>       0.33354361       0.33346128       0.15762686 </v>
    <v>       0.32449574       0.33291576       0.31330002 </v>
    <v>       0.33333336       0.66666672       0.00000000 </v>
    <v>       0.33335948       0.66598676       0.15821103 </v>
    <v>       0.32248510       0.66363569       0.33016693 </v>
    <v>       0.66666668       0.00000000       0.00000000 </v>
    <v>       0.66644575       0.99844432       0.15720850 </v>
    <v>       0.66480878       0.99507716       0.31290626 </v>
    <v>       0.66666668       0.33333336       0.00000000 </v>
    <v>       0.66630330       0.33320479       0.15824308 </v>
    <v>       0.66110860       0.31800814       0.32212712 </v>
    <v>       0.66666670       0.66666672       0.00000000 </v>
    <v>       0.66735317       0.66589110       0.15843395 </v>
    <v>       0.67489435       0.66968117       0.31512586 </v>
    <v>       0.11111113       0.22222222       0.07982145 </v>
    <v>       0.11033931       0.21767615       0.23580067 </v>
    <v>       0.11111114       0.55555561       0.07982145 </v>
    <v>       0.11548917       0.55804154       0.23578559 </v>
    <v>       0.11111116       0.88888894       0.07982145 </v>
    <v>       0.10798744       0.88637572       0.23352360 </v>
    <v>       0.44444450       0.22222222       0.07982145 </v>
    <v>       0.44645421       0.22537145       0.23551864 </v>
    <v>       0.44444450       0.55555561       0.07982145 </v>
    <v>       0.44530173       0.55791172       0.23690488 </v>
    <v>       0.44444451       0.88888894       0.07982145 </v>
    <v>       0.44423985       0.88512214       0.23513446 </v>
    <v>       0.77777779       0.22222222       0.07982145 </v>
    <v>       0.77392725       0.21911310       0.23446130 </v>
    <v>       0.77777781       0.55555561       0.07982145 </v>
    <v>       0.77574788       0.54993343       0.23758911 </v>
    <v>       0.77777784       0.88888894       0.07982145 </v>
    <v>       0.78118930       0.88845676       0.23693514 </v>
    <v>       0.99141534       0.00815999       0.39619636 </v>
    <v>       0.27692298       0.97174481       0.41174998 </v>
    <v>       0.89507143       0.25017864       0.41115727 </v>
    <v>       0.63843350       0.32154151       0.38882014 </v>
    <v>       0.61817684       0.59932718       0.38251324 </v>
    <v>       0.29979894       0.69286022       0.39665373 </v>
    <v>       0.97094046       0.09141797       0.40809408 </v>
    <v>       0.08207643       0.01015987       0.41107789 </v>
    <v>       0.38164910       0.07270335       0.41173490 </v>
    <v>       0.24632045       0.95753716       0.38199373 </v>
    <v>       0.99452681       0.35513592       0.40814389 </v>
    <v>       0.86344932       0.21635091       0.38189830 </v>
    <v>       0.64345979       0.42510723       0.39546197 </v>
    <v>       0.72557075       0.31662056       0.40386133 </v>
    <v>       0.65100566       0.69860704       0.39839395 </v>
    <v>       0.50193118       0.55532573       0.37310002 </v>
    <v>       0.29896032       0.79161455       0.40622361 </v>
    <v>       0.35614594       0.66623033       0.41749063 </v>
   </varray>
  </structure>
  <varray name="forces" >
   <v>       0.01448636      -0.02391491       0.00957743 </v>
   <v>       0.00731489      -0.01915730      -0.00720812 </v>
   <v>       0.00910212      -0.02838109      -0.01201583 </v>
   <v>      -0.02098180      -0.00964514      -0.01254061 </v>
   <v>      -0.00591140      -0.00053550      -0.00700258 </v>
   <v>      -0.01931806      -0.00867934       0.01265223 </v>
   <v>       0.00764899       0.03544254      -0.02051591 </v>
   <v>      -0.01139528       0.01487310      -0.00610014 </v>
   <v>      -0.00669763       0.03083707       0.01893719 </v>
   <v>      -0.02694217      -0.01358569      -0.02731445 </v>
   <v>      -0.00076853      -0.00680968       0.00425430 </v>
   <v>      -0.03526654      -0.00648214       0.00852973 </v>
   <v>      -0.00354473       0.00139904      -0.01515168 </v>
   <v>       0.01036154       0.00296326      -0.00788236 </v>
   <v>       0.00326335      -0.00209728      -0.01186532 </v>
   <v>      -0.00455889      -0.00572186      -0.00151746 </v>
   <v>      -0.00112792       0.01125286       0.00115203 </v>
   <v>      -0.01906007      -0.00066471      -0.03774599 </v>
   <v>       0.00980261       0.01995598      -0.02830624 </v>
   <v>      -0.00971909      -0.00679873       0.00429717 </v>
   <v>       0.01431424       0.02526897       0.00801344 </v>
   <v>       0.01944861      -0.02041089       0.00812224 </v>
   <v>      -0.01007606       0.00270569       0.00017198 </v>
   <v>       0.01283720      -0.00748432      -0.02644605 </v>
   <v>      -0.00815616       0.02535639      -0.04029086 </v>
   <v>       0.01065575       0.01071718       0.00294638 </v>
   <v>      -0.01907063       0.00785007      -0.02813623 </v>
   <v>       0.00588689      -0.03561039       0.01193829 </v>
   <v>       0.00228992      -0.03003794      -0.00680131 </v>
   <v>       0.02399998       0.00055183       0.01259443 </v>
   <v>       0.00562396       0.01549655      -0.00011393 </v>
   <v>      -0.05943162      -0.00224820      -0.03755499 </v>
   <v>      -0.03327954      -0.00266405       0.00894161 </v>
   <v>       0.02910378       0.04647341       0.02199958 </v>
   <v>       0.03040368       0.03036493      -0.00945547 </v>
   <v>      -0.02217099       0.00071431       0.00801928 </v>
   <v>      -0.00290751       0.00347726      -0.01103350 </v>
   <v>       0.02362079      -0.04174018       0.02529092 </v>
   <v>       0.01350781      -0.01542140      -0.00706736 </v>
   <v>      -0.02471127       0.01835232      -0.03080520 </v>
   <v>      -0.03208856       0.00804640       0.01054230 </v>
   <v>       0.00942198      -0.03238876       0.04330579 </v>
   <v>      -0.00096697      -0.02975853      -0.03449160 </v>
   <v>       0.04766154       0.00231257       0.02397516 </v>
   <v>       0.01569696       0.00043124      -0.01810558 </v>
   <v>      -0.00853823      -0.00545662       0.01875746 </v>
   <v>       0.00161769       0.01019317       0.03426851 </v>
   <v>      -0.00111912       0.00642175       0.03375148 </v>
   <v>       0.01060973      -0.02713840       0.01965811 </v>
   <v>       0.02045282       0.02225644       0.03950526 </v>
   <v>      -0.00974937       0.00761685      -0.00284290 </v>
   <v>      -0.00223526      -0.00083415      -0.00439679 </v>
   <v>       0.00472573       0.00066669      -0.01154698 </v>
   <v>       0.00008308       0.00334250      -0.00777536 </v>
   <v>      -0.01016791      -0.00927061      -0.02539723 </v>
   <v>      -0.00144661       0.00406005      -0.00898265 </v>
   <v>      -0.00416313      -0.00828267      -0.02702495 </v>
   <v>       0.01821470      -0.01547519       0.02292705 </v>
   <v>       0.02344012      -0.01559943      -0.01217600 </v>
   <v>      -0.00916823       0.06351527       0.00249948 </v>
   <v>       0.02928578       0.00167722       0.14647493 </v>
   <v>      -0.00755600       0.00225631      -0.01485892 </v>
   <v>      -0.00258732      -0.00455413      -0.00263325 </v>
  </varray>
  <varray name="stress" >
   <v>      -3.42315322      -0.53508295       0.06232498 </v>
   <v>      -0.53508295      -5.11373255       0.21426491 </v>
   <v>       0.06232479       0.21426462       0.63128672 </v>
  </varray>
  <energy>
   <i name="e_fr_energy">    -67.54068612 </i>
   <i name="e_wo_entrp">    -67.54068612 </i>
   <i name="e_0_energy">      0.00000000 </i>
  </energy>
  <time name="totalsc">  187.04  188.94</time>
  <eigenvalues>
   <array>
    <dimension dim="1">band</dimension>
    <dimension dim="2">kpoint</dimension>
    <dimension dim="3">spin</dimension>
    <field>eigene</field>
    <field>occ</field>
    <set>
     <set comment="spin 1">
      <set comment="kpoint 1">
       <r>  -24.0009    1.0000 </r>
       <r>  -23.8405    1.0000 </r>
       <r>  -23.6853    1.0000 </r>
       <r>  -23.5754    1.0000 </r>
       <r>  -23.4003    1.0000 </r>
       <r>  -23.2850    1.0000 </r>
       <r>  -12.0763    1.0000 </r>
       <r>  -11.8848    1.0000 </r>
       <r>  -11.7582    1.0000 </r>
       <r>  -11.6725    1.0000 </r>
       <r>  -11.0897    1.0000 </r>
       <r>  -10.9539    1.0000 </r>
       <r>   -8.8303    1.0000 </r>
       <r>   -8.6806    1.0000 </r>
       <r>   -8.5286    1.0000 </r>
       <r>   -8.2268    1.0000 </r>
       <r>   -7.9405    1.0000 </r>
       <r>   -7.8151    1.0000 </r>
       <r>   -7.3241    1.0000 </r>
       <r>   -6.9587    1.0000 </r>
       <r>   -6.7037    1.0000 </r>
       <r>   -6.4391    1.0000 </r>
       <r>   -6.3266    1.0000 </r>
       <r>   -6.2482    1.0000 </r>
       <r>   -5.8835    1.0000 </r>
       <r>   -5.8403    1.0000 </r>
       <r>   -5.7695    1.0000 </r>
       <r>   -5.1760    1.0000 </r>
       <r>   -5.1690    1.0000 </r>
       <r>   -5.1632    1.0000 </r>
       <r>   -5.1462    1.0000 </r>
       <r>   -5.1290    1.0000 </r>
       <r>   -5.1248    1.0000 </r>
       <r>   -4.6302    1.0000 </r>
       <r>   -4.6148    1.0000 </r>
       <r>   -4.6098    1.0000 </r>
       <r>   -4.6045    1.0000 </r>
       <r>   -4.5601    1.0000 </r>
       <r>   -4.5045    1.0000 </r>
       <r>   -4.4791    1.0000 </r>
       <r>   -3.7436    1.0000 </r>
       <r>   -3.7366    1.0000 </r>
       <r>   -3.7197    1.0000 </r>
       <r>   -3.6661    1.0000 </r>
       <r>   -3.6059    1.0000 </r>
       <r>   -3.5910    1.0000 </r>
       <r>   -3.0898    1.0000 </r>
       <r>   -2.5977    1.0000 </r>
       <r>   -2.5815    1.0000 </r>
       <r>   -2.5354    1.0000 </r>
       <r>   -2.5045    1.0000 </r>
       <r>   -2.4769    1.0000 </r>
       <r>   -2.4373    1.0000 </r>
       <r>   -1.6880    1.0000 </r>
       <r>   -1.1811    1.0000 </r>
       <r>   -1.1480    1.0000 </r>
       <r>   -1.0720    1.0000 </r>
       <r>   -1.0401    1.0000 </r>
       <r>   -1.0108    1.0000 </r>
       <r>   -0.9933    1.0000 </r>
       <r>   -0.9910    1.0000 </r>
       <r>   -0.9863    1.0000 </r>
       <r>   -0.9450    1.0000 </r>
       <r>   -0.9407    1.0000 </r>
       <r>   -0.9313    1.0000 </r>
       <r>   -0.8672    1.0000 </r>
       <r>   -0.6547    1.0000 </r>
       <r>   -0.5654    1.0000 </r>
       <r>   -0.4610    0.0000 </r>
       <r>   -0.4462    0.0000 </r>
       <r>   -0.3505    0.0000 </r>
       <r>   -0.3212    0.0000 </r>
       <r>   -0.1744    0.0000 </r>
       <r>   -0.0430    0.0000 </r>
       <r>   -0.0186    0.0000 </r>
       <r>    0.2182    0.0000 </r>
       <r>    0.2287    0.0000 </r>
       <r>    0.3210    0.0000 </r>
       <r>    0.3465    0.0000 </r>
       <r>    0.3851    0.0000 </r>
       <r>    0.4069    0.0000 </r>
       <r>    0.5654    0.0000 </r>
       <r>    0.6384    0.0000 </r>
       <r>    0.7626    0.0000 </r>
       <r>    1.0840    0.0000 </r>
       <r>    1.1030    0.0000 </r>
       <r>    1.1109    0.0000 </r>
       <r>    1.1153    0.0000 </r>
       <r>    1.1290    0.0000 </r>
       <r>    1.1493    0.0000 </r>
       <r>    1.2230    0.0000 </r>
       <r>    1.2956    0.0000 </r>
       <r>    1.3940    0.0000 </r>
       <r>    1.4201    0.0000 </r>
       <r>    1.6459    0.0000 </r>
       <r>    1.6583    0.0000 </r>
       <r>    1.6666    0.0000 </r>
       <r>    1.6750    0.0000 </r>
       <r>    1.6824    0.0000 </r>
       <r>    1.6962    0.0000 </r>
       <r>    1.8056    0.0000 </r>
       <r>    1.8907    0.0000 </r>
      </set>
      <set comment="kpoint 2">
       <r>  -24.0002    1.0000 </r>
       <r>  -23.8420    1.0000 </r>
       <r>  -23.6774    1.0000 </r>
       <r>  -23.5912    1.0000 </r>
       <r>  -23.3820    1.0000 </r>
       <r>  -23.2948    1.0000 </r>
       <r>  -12.0753    1.0000 </r>
       <r>  -11.8861    1.0000 </r>
       <r>  -11.7593    1.0000 </r>
       <r>  -11.6704    1.0000 </r>
       <r>  -11.0899    1.0000 </r>
       <r>  -10.9546    1.0000 </r>
       <r>   -8.8291    1.0000 </r>
       <r>   -8.6844    1.0000 </r>
       <r>   -8.5234    1.0000 </r>
       <r>   -8.2372    1.0000 </r>
       <r>   -7.9033    1.0000 </r>
       <r>   -7.8412    1.0000 </r>
       <r>   -7.0893    1.0000 </r>
       <r>   -6.9441    1.0000 </r>
       <r>   -6.5048    1.0000 </r>
       <r>   -6.4272    1.0000 </r>
       <r>   -6.3613    1.0000 </r>
       <r>   -6.3203    1.0000 </r>
       <r>   -6.2328    1.0000 </r>
       <r>   -5.8812    1.0000 </r>
       <r>   -5.8425    1.0000 </r>
       <r>   -5.7423    1.0000 </r>
       <r>   -5.6400    1.0000 </r>
       <r>   -5.6143    1.0000 </r>
       <r>   -5.5442    1.0000 </r>
       <r>   -5.0753    1.0000 </r>
       <r>   -4.9987    1.0000 </r>
       <r>   -4.8486    1.0000 </r>
       <r>   -4.3773    1.0000 </r>
       <r>   -4.2179    1.0000 </r>
       <r>   -4.1898    1.0000 </r>
       <r>   -4.1822    1.0000 </r>
       <r>   -4.1071    1.0000 </r>
       <r>   -3.6894    1.0000 </r>
       <r>   -3.6537    1.0000 </r>
       <r>   -3.5793    1.0000 </r>
       <r>   -3.4968    1.0000 </r>
       <r>   -3.0183    1.0000 </r>
       <r>   -2.9714    1.0000 </r>
       <r>   -2.9188    1.0000 </r>
       <r>   -2.8541    1.0000 </r>
       <r>   -2.8123    1.0000 </r>
       <r>   -2.7901    1.0000 </r>
       <r>   -2.7787    1.0000 </r>
       <r>   -2.7138    1.0000 </r>
       <r>   -2.2785    1.0000 </r>
       <r>   -2.2082    1.0000 </r>
       <r>   -2.1475    1.0000 </r>
       <r>   -2.0814    1.0000 </r>
       <r>   -1.6716    1.0000 </r>
       <r>   -1.6153    1.0000 </r>
       <r>   -1.5452    1.0000 </r>
       <r>   -1.4765    1.0000 </r>
       <r>   -1.4476    1.0000 </r>
       <r>   -1.4035    1.0000 </r>
       <r>   -1.3971    1.0000 </r>
       <r>   -1.3612    1.0000 </r>
       <r>   -1.1828    1.0000 </r>
       <r>   -0.7744    1.0000 </r>
       <r>   -0.7686    1.0000 </r>
       <r>   -0.7586    1.0000 </r>
       <r>   -0.5637    1.0000 </r>
       <r>   -0.5324    0.4996 </r>
       <r>   -0.5132    0.0762 </r>
       <r>   -0.4576   -0.0381 </r>
       <r>   -0.3696   -0.0082 </r>
       <r>   -0.1726    0.0000 </r>
       <r>    0.0059    0.0000 </r>
       <r>    0.0694    0.0000 </r>
       <r>    0.0974    0.0000 </r>
       <r>    0.1428    0.0000 </r>
       <r>    0.1896    0.0000 </r>
       <r>    0.3191    0.0000 </r>
       <r>    0.3868    0.0000 </r>
       <r>    0.5859    0.0000 </r>
       <r>    0.5950    0.0000 </r>
       <r>    0.6653    0.0000 </r>
       <r>    0.6989    0.0000 </r>
       <r>    0.7276    0.0000 </r>
       <r>    0.8154    0.0000 </r>
       <r>    0.9467    0.0000 </r>
       <r>    0.9746    0.0000 </r>
       <r>    1.0445    0.0000 </r>
       <r>    1.1554    0.0000 </r>
       <r>    1.2095    0.0000 </r>
       <r>    1.3398    0.0000 </r>
       <r>    1.3992    0.0000 </r>
       <r>    1.4050    0.0000 </r>
       <r>    1.4772    0.0000 </r>
       <r>    1.5020    0.0000 </r>
       <r>    1.5543    0.0000 </r>
       <r>    1.6155    0.0000 </r>
       <r>    1.6883    0.0000 </r>
       <r>    1.7690    0.0000 </r>
       <r>    1.8014    0.0000 </r>
       <r>    2.2494    0.0000 </r>
      </set>
      <set comment="kpoint 3">
       <r>  -23.9994    1.0000 </r>
       <r>  -23.8432    1.0000 </r>
       <r>  -23.6860    1.0000 </r>
       <r>  -23.5747    1.0000 </r>
       <r>  -23.3959    1.0000 </r>
       <r>  -23.2883    1.0000 </r>
       <r>  -12.0755    1.0000 </r>
       <r>  -11.8843    1.0000 </r>
       <r>  -11.7591    1.0000 </r>
       <r>  -11.6705    1.0000 </r>
       <r>  -11.1019    1.0000 </r>
       <r>  -10.9438    1.0000 </r>
       <r>   -8.8139    1.0000 </r>
       <r>   -8.7030    1.0000 </r>
       <r>   -8.5269    1.0000 </r>
       <r>   -8.2259    1.0000 </r>
       <r>   -7.9185    1.0000 </r>
       <r>   -7.8320    1.0000 </r>
       <r>   -7.0914    1.0000 </r>
       <r>   -6.9466    1.0000 </r>
       <r>   -6.5030    1.0000 </r>
       <r>   -6.4241    1.0000 </r>
       <r>   -6.3623    1.0000 </r>
       <r>   -6.3187    1.0000 </r>
       <r>   -6.2336    1.0000 </r>
       <r>   -5.8769    1.0000 </r>
       <r>   -5.8451    1.0000 </r>
       <r>   -5.7438    1.0000 </r>
       <r>   -5.6389    1.0000 </r>
       <r>   -5.6148    1.0000 </r>
       <r>   -5.5440    1.0000 </r>
       <r>   -5.0710    1.0000 </r>
       <r>   -5.0026    1.0000 </r>
       <r>   -4.8487    1.0000 </r>
       <r>   -4.3789    1.0000 </r>
       <r>   -4.2167    1.0000 </r>
       <r>   -4.1920    1.0000 </r>
       <r>   -4.1761    1.0000 </r>
       <r>   -4.1114    1.0000 </r>
       <r>   -3.6852    1.0000 </r>
       <r>   -3.6567    1.0000 </r>
       <r>   -3.5794    1.0000 </r>
       <r>   -3.4970    1.0000 </r>
       <r>   -3.0202    1.0000 </r>
       <r>   -2.9688    1.0000 </r>
       <r>   -2.9176    1.0000 </r>
       <r>   -2.8460    1.0000 </r>
       <r>   -2.8154    1.0000 </r>
       <r>   -2.7884    1.0000 </r>
       <r>   -2.7804    1.0000 </r>
       <r>   -2.7137    1.0000 </r>
       <r>   -2.2762    1.0000 </r>
       <r>   -2.2132    1.0000 </r>
       <r>   -2.1447    1.0000 </r>
       <r>   -2.0853    1.0000 </r>
       <r>   -1.6713    1.0000 </r>
       <r>   -1.6154    1.0000 </r>
       <r>   -1.5473    1.0000 </r>
       <r>   -1.4813    1.0000 </r>
       <r>   -1.4449    1.0000 </r>
       <r>   -1.4260    1.0000 </r>
       <r>   -1.3862    1.0000 </r>
       <r>   -1.3369    1.0000 </r>
       <r>   -1.1844    1.0000 </r>
       <r>   -0.7749    1.0000 </r>
       <r>   -0.7644    1.0000 </r>
       <r>   -0.7613    1.0000 </r>
       <r>   -0.5630    1.0000 </r>
       <r>   -0.5316    0.4964 </r>
       <r>   -0.5138    0.0810 </r>
       <r>   -0.4729   -0.0280 </r>
       <r>   -0.3691   -0.0082 </r>
       <r>   -0.1849    0.0000 </r>
       <r>    0.0363    0.0000 </r>
       <r>    0.0747    0.0000 </r>
       <r>    0.1017    0.0000 </r>
       <r>    0.1496    0.0000 </r>
       <r>    0.1789    0.0000 </r>
       <r>    0.3092    0.0000 </r>
       <r>    0.3963    0.0000 </r>
       <r>    0.5784    0.0000 </r>
       <r>    0.5940    0.0000 </r>
       <r>    0.6633    0.0000 </r>
       <r>    0.6861    0.0000 </r>
       <r>    0.7271    0.0000 </r>
       <r>    0.8087    0.0000 </r>
       <r>    0.9283    0.0000 </r>
       <r>    0.9965    0.0000 </r>
       <r>    1.0606    0.0000 </r>
       <r>    1.1489    0.0000 </r>
       <r>    1.1866    0.0000 </r>
       <r>    1.3685    0.0000 </r>
       <r>    1.3913    0.0000 </r>
       <r>    1.4246    0.0000 </r>
       <r>    1.4778    0.0000 </r>
       <r>    1.5289    0.0000 </r>
       <r>    1.5441    0.0000 </r>
       <r>    1.6268    0.0000 </r>
       <r>    1.6848    0.0000 </r>
       <r>    1.7744    0.0000 </r>
       <r>    1.8322    0.0000 </r>
       <r>    2.2325    0.0000 </r>
      </set>
      <set comment="kpoint 4">
       <r>  -23.9991    1.0000 </r>
       <r>  -23.8423    1.0000 </r>
       <r>  -23.6858    1.0000 </r>
       <r>  -23.5823    1.0000 </r>
       <r>  -23.3813    1.0000 </r>
       <r>  -23.2967    1.0000 </r>
       <r>  -12.0749    1.0000 </r>
       <r>  -11.8846    1.0000 </r>
       <r>  -11.7570    1.0000 </r>
       <r>  -11.6741    1.0000 </r>
       <r>  -11.0928    1.0000 </r>
       <r>  -10.9520    1.0000 </r>
       <r>   -8.8138    1.0000 </r>
       <r>   -8.7051    1.0000 </r>
       <r>   -8.5239    1.0000 </r>
       <r>   -8.2296    1.0000 </r>
       <r>   -7.8906    1.0000 </r>
       <r>   -7.8548    1.0000 </r>
       <r>   -6.9655    1.0000 </r>
       <r>   -6.6092    1.0000 </r>
       <r>   -6.6001    1.0000 </r>
       <r>   -6.5748    1.0000 </r>
       <r>   -6.4403    1.0000 </r>
       <r>   -6.3409    1.0000 </r>
       <r>   -6.2629    1.0000 </r>
       <r>   -5.9975    1.0000 </r>
       <r>   -5.9816    1.0000 </r>
       <r>   -5.9481    1.0000 </r>
       <r>   -5.8704    1.0000 </r>
       <r>   -5.8459    1.0000 </r>
       <r>   -5.1062    1.0000 </r>
       <r>   -5.0970    1.0000 </r>
       <r>   -5.0423    1.0000 </r>
       <r>   -4.4425    1.0000 </r>
       <r>   -4.4380    1.0000 </r>
       <r>   -4.4341    1.0000 </r>
       <r>   -3.9421    1.0000 </r>
       <r>   -3.9301    1.0000 </r>
       <r>   -3.8924    1.0000 </r>
       <r>   -3.8515    1.0000 </r>
       <r>   -3.8476    1.0000 </r>
       <r>   -3.8284    1.0000 </r>
       <r>   -3.0059    1.0000 </r>
       <r>   -2.9915    1.0000 </r>
       <r>   -2.9727    1.0000 </r>
       <r>   -2.4257    1.0000 </r>
       <r>   -2.4031    1.0000 </r>
       <r>   -2.3676    1.0000 </r>
       <r>   -2.3585    1.0000 </r>
       <r>   -2.3546    1.0000 </r>
       <r>   -2.3355    1.0000 </r>
       <r>   -2.3276    1.0000 </r>
       <r>   -2.3230    1.0000 </r>
       <r>   -2.3113    1.0000 </r>
       <r>   -1.8907    1.0000 </r>
       <r>   -1.8788    1.0000 </r>
       <r>   -1.8610    1.0000 </r>
       <r>   -1.8453    1.0000 </r>
       <r>   -1.8320    1.0000 </r>
       <r>   -1.8084    1.0000 </r>
       <r>   -1.7350    1.0000 </r>
       <r>   -1.7302    1.0000 </r>
       <r>   -1.7151    1.0000 </r>
       <r>   -1.2215    1.0000 </r>
       <r>   -1.2172    1.0000 </r>
       <r>   -1.2090    1.0000 </r>
       <r>   -1.0189    1.0000 </r>
       <r>   -0.9857    1.0000 </r>
       <r>   -0.9356    1.4455 </r>
       <r>   -0.5784    1.0536 </r>
       <r>   -0.5700    0.3961 </r>
       <r>   -0.5430    0.0296 </r>
       <r>   -0.4160    0.0000 </r>
       <r>   -0.3814    0.0000 </r>
       <r>   -0.3240    0.0000 </r>
       <r>    0.1991    0.0000 </r>
       <r>    0.2160    0.0000 </r>
       <r>    0.2385    0.0000 </r>
       <r>    0.3075    0.0000 </r>
       <r>    0.3237    0.0000 </r>
       <r>    0.4059    0.0000 </r>
       <r>    0.4392    0.0000 </r>
       <r>    0.7104    0.0000 </r>
       <r>    0.7760    0.0000 </r>
       <r>    0.9938    0.0000 </r>
       <r>    1.0427    0.0000 </r>
       <r>    1.0866    0.0000 </r>
       <r>    1.2962    0.0000 </r>
       <r>    1.4846    0.0000 </r>
       <r>    1.5197    0.0000 </r>
       <r>    1.6417    0.0000 </r>
       <r>    1.6662    0.0000 </r>
       <r>    1.6857    0.0000 </r>
       <r>    1.7400    0.0000 </r>
       <r>    1.7532    0.0000 </r>
       <r>    1.7608    0.0000 </r>
       <r>    1.7649    0.0000 </r>
       <r>    1.7916    0.0000 </r>
       <r>    1.8260    0.0000 </r>
       <r>    1.8811    0.0000 </r>
       <r>    2.0102    0.0000 </r>
       <r>    2.3117    0.0000 </r>
      </set>
      <set comment="kpoint 5">
       <r>  -23.9990    1.0000 </r>
       <r>  -23.8435    1.0000 </r>
       <r>  -23.6813    1.0000 </r>
       <r>  -23.5867    1.0000 </r>
       <r>  -23.3800    1.0000 </r>
       <r>  -23.2971    1.0000 </r>
       <r>  -12.0751    1.0000 </r>
       <r>  -11.8849    1.0000 </r>
       <r>  -11.7583    1.0000 </r>
       <r>  -11.6717    1.0000 </r>
       <r>  -11.0971    1.0000 </r>
       <r>  -10.9484    1.0000 </r>
       <r>   -8.8144    1.0000 </r>
       <r>   -8.7042    1.0000 </r>
       <r>   -8.5272    1.0000 </r>
       <r>   -8.2226    1.0000 </r>
       <r>   -7.9161    1.0000 </r>
       <r>   -7.8346    1.0000 </r>
       <r>   -7.0906    1.0000 </r>
       <r>   -6.9460    1.0000 </r>
       <r>   -6.5104    1.0000 </r>
       <r>   -6.4239    1.0000 </r>
       <r>   -6.3498    1.0000 </r>
       <r>   -6.3186    1.0000 </r>
       <r>   -6.2376    1.0000 </r>
       <r>   -5.8778    1.0000 </r>
       <r>   -5.8478    1.0000 </r>
       <r>   -5.7440    1.0000 </r>
       <r>   -5.6385    1.0000 </r>
       <r>   -5.6159    1.0000 </r>
       <r>   -5.5423    1.0000 </r>
       <r>   -5.0749    1.0000 </r>
       <r>   -5.0000    1.0000 </r>
       <r>   -4.8478    1.0000 </r>
       <r>   -4.3775    1.0000 </r>
       <r>   -4.2150    1.0000 </r>
       <r>   -4.1925    1.0000 </r>
       <r>   -4.1826    1.0000 </r>
       <r>   -4.1053    1.0000 </r>
       <r>   -3.6848    1.0000 </r>
       <r>   -3.6605    1.0000 </r>
       <r>   -3.5773    1.0000 </r>
       <r>   -3.4974    1.0000 </r>
[...]
       <r>   -22.0603     0.0000    12.0000 </r>
       <r>   -21.9592     0.0000    12.0000 </r>
       <r>   -21.8582     0.0000    12.0000 </r>
       <r>   -21.7572     0.0000    12.0000 </r>
       <r>   -21.6561     0.0000    12.0000 </r>
       <r>   -21.5551     0.0000    12.0000 </r>
       <r>   -21.4540     0.0000    12.0000 </r>
       <r>   -21.3530     0.0000    12.0000 </r>
       <r>   -21.2520     0.0000    12.0000 </r>
       <r>   -21.1509     0.0000    12.0000 </r>
       <r>   -21.0499     0.0000    12.0000 </r>
       <r>   -20.9488     0.0000    12.0000 </r>
       <r>   -20.8478     0.0000    12.0000 </r>
       <r>   -20.7467     0.0000    12.0000 </r>
       <r>   -20.6457     0.0000    12.0000 </r>
       <r>   -20.5447     0.0000    12.0000 </r>
       <r>   -20.4436     0.0000    12.0000 </r>
       <r>   -20.3426     0.0000    12.0000 </r>
       <r>   -20.2415     0.0000    12.0000 </r>
       <r>   -20.1405     0.0000    12.0000 </r>
       <r>   -20.0395     0.0000    12.0000 </r>
       <r>   -19.9384     0.0000    12.0000 </r>
       <r>   -19.8374     0.0000    12.0000 </r>
       <r>   -19.7363     0.0000    12.0000 </r>
       <r>   -19.6353     0.0000    12.0000 </r>
       <r>   -19.5342     0.0000    12.0000 </r>
       <r>   -19.4332     0.0000    12.0000 </r>
       <r>   -19.3322     0.0000    12.0000 </r>
       <r>   -19.2311     0.0000    12.0000 </r>
       <r>   -19.1301     0.0000    12.0000 </r>
       <r>   -19.0290     0.0000    12.0000 </r>
       <r>   -18.9280     0.0000    12.0000 </r>
       <r>   -18.8269     0.0000    12.0000 </r>
       <r>   -18.7259     0.0000    12.0000 </r>
       <r>   -18.6249     0.0000    12.0000 </r>
       <r>   -18.5238     0.0000    12.0000 </r>
       <r>   -18.4228     0.0000    12.0000 </r>
       <r>   -18.3217     0.0000    12.0000 </r>
       <r>   -18.2207     0.0000    12.0000 </r>
       <r>   -18.1197     0.0000    12.0000 </r>
       <r>   -18.0186     0.0000    12.0000 </r>
       <r>   -17.9176     0.0000    12.0000 </r>
       <r>   -17.8165     0.0000    12.0000 </r>
       <r>   -17.7155     0.0000    12.0000 </r>
       <r>   -17.6144     0.0000    12.0000 </r>
       <r>   -17.5134     0.0000    12.0000 </r>
       <r>   -17.4124     0.0000    12.0000 </r>
       <r>   -17.3113     0.0000    12.0000 </r>
       <r>   -17.2103     0.0000    12.0000 </r>
       <r>   -17.1092     0.0000    12.0000 </r>
       <r>   -17.0082     0.0000    12.0000 </r>
       <r>   -16.9071     0.0000    12.0000 </r>
       <r>   -16.8061     0.0000    12.0000 </r>
       <r>   -16.7051     0.0000    12.0000 </r>
       <r>   -16.6040     0.0000    12.0000 </r>
       <r>   -16.5030     0.0000    12.0000 </r>
       <r>   -16.4019     0.0000    12.0000 </r>
       <r>   -16.3009     0.0000    12.0000 </r>
       <r>   -16.1999     0.0000    12.0000 </r>
       <r>   -16.0988     0.0000    12.0000 </r>
       <r>   -15.9978     0.0000    12.0000 </r>
       <r>   -15.8967     0.0000    12.0000 </r>
       <r>   -15.7957     0.0000    12.0000 </r>
       <r>   -15.6946     0.0000    12.0000 </r>
       <r>   -15.5936     0.0000    12.0000 </r>
       <r>   -15.4926     0.0000    12.0000 </r>
       <r>   -15.3915     0.0000    12.0000 </r>
       <r>   -15.2905     0.0000    12.0000 </r>
       <r>   -15.1894     0.0000    12.0000 </r>
       <r>   -15.0884     0.0000    12.0000 </r>
       <r>   -14.9873     0.0000    12.0000 </r>
       <r>   -14.8863     0.0000    12.0000 </r>
       <r>   -14.7853     0.0000    12.0000 </r>
       <r>   -14.6842     0.0000    12.0000 </r>
       <r>   -14.5832     0.0000    12.0000 </r>
       <r>   -14.4821     0.0000    12.0000 </r>
       <r>   -14.3811     0.0000    12.0000 </r>
       <r>   -14.2801     0.0000    12.0000 </r>
       <r>   -14.1790     0.0000    12.0000 </r>
       <r>   -14.0780     0.0000    12.0000 </r>
       <r>   -13.9769     0.0000    12.0000 </r>
       <r>   -13.8759     0.0000    12.0000 </r>
       <r>   -13.7748     0.0000    12.0000 </r>
       <r>   -13.6738     0.0000    12.0000 </r>
       <r>   -13.5728     0.0000    12.0000 </r>
       <r>   -13.4717     0.0000    12.0000 </r>
       <r>   -13.3707     0.0000    12.0000 </r>
       <r>   -13.2696     0.0000    12.0000 </r>
       <r>   -13.1686     0.0000    12.0000 </r>
       <r>   -13.0675     0.0000    12.0000 </r>
       <r>   -12.9665     0.0000    12.0000 </r>
       <r>   -12.8655     0.0000    12.0000 </r>
       <r>   -12.7644     0.0000    12.0000 </r>
       <r>   -12.6634     0.0000    12.0000 </r>
       <r>   -12.5623     0.0000    12.0000 </r>
       <r>   -12.4613     0.0000    12.0000 </r>
       <r>   -12.3603     0.0000    12.0000 </r>
       <r>   -12.2592     0.0000    12.0000 </r>
       <r>   -12.1582     0.0000    12.0000 </r>
       <r>   -12.0571     0.0000    14.0000 </r>
       <r>   -11.9561     0.0000    14.0000 </r>
       <r>   -11.8550     0.0000    16.0000 </r>
       <r>   -11.7540     0.0000    18.0000 </r>
       <r>   -11.6530     0.0000    20.0000 </r>
       <r>   -11.5519     0.0000    20.0000 </r>
       <r>   -11.4509     0.0000    20.0000 </r>
       <r>   -11.3498     0.0000    20.0000 </r>
       <r>   -11.2488     0.0000    20.0000 </r>
       <r>   -11.1477     0.0000    20.0000 </r>
       <r>   -11.0467     0.0000    22.0000 </r>
       <r>   -10.9457    98.5412    23.8571 </r>
       <r>   -10.8446     0.0000    24.0000 </r>
       <r>   -10.7436     0.0000    24.0000 </r>
       <r>   -10.6425     0.0000    24.0000 </r>
       <r>   -10.5415     0.0000    24.0000 </r>
       <r>   -10.4405     0.0000    24.0000 </r>
       <r>   -10.3394     0.0000    24.0000 </r>
       <r>   -10.2384     0.0000    24.0000 </r>
       <r>   -10.1373     0.0000    24.0000 </r>
       <r>   -10.0363     0.0000    24.0000 </r>
       <r>    -9.9352     0.0000    24.0000 </r>
       <r>    -9.8342     0.0000    24.0000 </r>
       <r>    -9.7332     0.0000    24.0000 </r>
       <r>    -9.6321     0.0000    24.0000 </r>
       <r>    -9.5311     0.0000    24.0000 </r>
       <r>    -9.4300     0.0000    24.0000 </r>
       <r>    -9.3290     0.0000    24.0000 </r>
       <r>    -9.2279     0.0000    24.0000 </r>
       <r>    -9.1269     0.0000    24.0000 </r>
       <r>    -9.0259     0.0000    24.0000 </r>
       <r>    -8.9248     0.0000    24.0000 </r>
       <r>    -8.8238    85.9961    24.4923 </r>
       <r>    -8.7227     0.0000    26.0000 </r>
       <r>    -8.6217     0.0000    28.0000 </r>
       <r>    -8.5207     0.0000    30.0000 </r>
       <r>    -8.4196     0.0000    30.0000 </r>
       <r>    -8.3186     0.0000    30.0000 </r>
       <r>    -8.2175     0.0000    32.0000 </r>
       <r>    -8.1165     0.0000    32.0000 </r>
       <r>    -8.0154     0.0000    32.0000 </r>
       <r>    -7.9144    70.4245    32.7055 </r>
       <r>    -7.8134     0.0000    36.0000 </r>
       <r>    -7.7123     0.0000    36.0000 </r>
       <r>    -7.6113     0.0000    36.0000 </r>
       <r>    -7.5102     0.0000    36.0000 </r>
       <r>    -7.4092     0.0000    36.0000 </r>
       <r>    -7.3081     0.3898    36.0031 </r>
       <r>    -7.2071     2.8571    36.1671 </r>
       <r>    -7.1061     5.3244    36.5805 </r>
       <r>    -7.0050     6.7557    37.8663 </r>
       <r>    -6.9040     6.9467    38.9761 </r>
       <r>    -6.8029     4.5656    39.5577 </r>
       <r>    -6.7019     2.2448    39.8988 </r>
       <r>    -6.6009     3.5119    40.1805 </r>
       <r>    -6.4998     8.9226    42.3344 </r>
       <r>    -6.3988    16.4423    44.3411 </r>
       <r>    -6.2977    13.0988    47.6753 </r>
       <r>    -6.1967     3.3861    49.4697 </r>
       <r>    -6.0956     2.2938    49.7567 </r>
       <r>    -5.9946     1.7521    49.9340 </r>
       <r>    -5.8936    35.8243    51.6695 </r>
       <r>    -5.7925    21.8217    54.9305 </r>
       <r>    -5.6915    18.7791    56.8440 </r>
       <r>    -5.5904     7.0498    58.5124 </r>
       <r>    -5.4894    13.6038    59.6182 </r>
       <r>    -5.3883     9.6534    60.7931 </r>
       <r>    -5.2873     5.7031    61.5690 </r>
       <r>    -5.1863     1.7528    61.9456 </r>
       <r>    -5.0852    81.4473    62.8341 </r>
       <r>    -4.9842     0.0000    66.0000 </r>
       <r>    -4.8831     0.0000    66.0000 </r>
       <r>    -4.7821     9.7556    66.7432 </r>
       <r>    -4.6811     5.2871    67.5032 </r>
       <r>    -4.5800     3.5013    67.8675 </r>
       <r>    -4.4790     6.8913    68.3769 </r>
       <r>    -4.3779    40.2127    70.7386 </r>
       <r>    -4.2769    19.2620    72.2267 </r>
       <r>    -4.1758    23.9316    74.0968 </r>
       <r>    -4.0748    23.1869    76.3946 </r>
       <r>    -3.9738     8.9622    78.0188 </r>
       <r>    -3.8727     1.2869    78.3902 </r>
       <r>    -3.7717    17.3195    79.1236 </r>
       <r>    -3.6706    37.5570    82.3041 </r>
       <r>    -3.5696     4.5260    84.3206 </r>
       <r>    -3.4686     6.5517    84.9318 </r>
       <r>    -3.3675     6.3854    85.5854 </r>
       <r>    -3.2665     6.2191    86.2222 </r>
       <r>    -3.1654     6.0527    86.8422 </r>
       <r>    -3.0644     6.4703    87.4528 </r>
       <r>    -2.9633     4.7625    90.7664 </r>
       <r>    -2.8623    10.0005    91.5527 </r>
       <r>    -2.7613    40.6030    93.6775 </r>
       <r>    -2.6602    36.5433    97.6641 </r>
       <r>    -2.5592    18.3834   100.3778 </r>
       <r>    -2.4581     8.1754   101.6344 </r>
       <r>    -2.3571     6.5578   102.3205 </r>
       <r>    -2.2560    24.5139   105.0587 </r>
       <r>    -2.1550    15.5638   107.2166 </r>
       <r>    -2.0540    15.3068   108.0108 </r>
       <r>    -1.9529     7.3412   109.1550 </r>
       <r>    -1.8519     4.1513   109.5715 </r>
       <r>    -1.7508    19.4285   110.7113 </r>
       <r>    -1.6498    30.7808   113.5529 </r>
       <r>    -1.5488    37.1502   116.8984 </r>
       <r>    -1.4477    35.9407   120.5101 </r>
       <r>    -1.3467    18.3175   123.0770 </r>
       <r>    -1.2456    11.8559   124.5531 </r>
       <r>    -1.1446    13.1973   127.0755 </r>
       <r>    -1.0435     9.1807   128.2014 </r>
       <r>    -0.9425    11.1701   129.1374 </r>
       <r>    -0.8415    29.5284   131.0266 </r>
       <r>    -0.7404    17.1353   134.3178 </r>
       <r>    -0.6394     9.9897   135.6093 </r>
       <r>    -0.5383    39.0366   137.8999 </r>
       <r>    -0.4373    19.6470   142.0487 </r>
       <r>    -0.3362    12.7293   144.0839 </r>
       <r>    -0.2352    11.7918   144.9432 </r>
       <r>    -0.1342    16.0593   146.7879 </r>
       <r>    -0.0331    17.6246   148.1258 </r>
       <r>     0.0679    11.5032   149.9570 </r>
       <r>     0.1690    48.0084   152.8666 </r>
       <r>     0.2700     3.7561   155.9042 </r>
       <r>     0.3710    35.3860   158.8374 </r>
       <r>     0.4721    12.1355   160.3407 </r>
       <r>     0.5731    47.2654   162.8275 </r>
       <r>     0.6742    42.6556   164.9999 </r>
       <r>     0.7752    12.0627   168.5682 </r>
       <r>     0.8763    18.8768   170.3847 </r>
       <r>     0.9773    29.6873   172.5200 </r>
       <r>     1.0783    28.2789   175.8202 </r>
       <r>     1.1794    14.3603   178.0109 </r>
       <r>     1.2804    13.0715   180.2291 </r>
       <r>     1.3815    15.1860   182.2127 </r>
       <r>     1.4825    37.9177   185.9612 </r>
       <r>     1.5836    49.2187   190.7228 </r>
       <r>     1.6846   115.3287   195.1422 </r>
       <r>     1.7856    25.7714   198.9636 </r>
       <r>     1.8867    10.7082   201.3389 </r>
       <r>     1.9877     2.9009   202.0245 </r>
       <r>     2.0888     1.9501   202.1932 </r>
       <r>     2.1898     2.9448   202.4404 </r>
       <r>     2.2908    16.9546   203.5399 </r>
       <r>     2.3919     0.0000   204.0000 </r>
       <r>     2.4929     0.0000   204.0000 </r>
       <r>     2.5940     0.0000   204.0000 </r>
       <r>     2.6950     0.0000   204.0000 </r>
       <r>     2.7961     0.0000   204.0000 </r>
       <r>     2.8971     0.0000   204.0000 </r>
       <r>     2.9981     0.0000   204.0000 </r>
       <r>     3.0992     0.0000   204.0000 </r>
       <r>     3.2002     0.0000   204.0000 </r>
       <r>     3.3013     0.0000   204.0000 </r>
       <r>     3.4023     0.0000   204.0000 </r>
       <r>     3.5034     0.0000   204.0000 </r>
       <r>     3.6044     0.0000   204.0000 </r>
       <r>     3.7054     0.0000   204.0000 </r>
       <r>     3.8065     0.0000   204.0000 </r>
       <r>     3.9075     0.0000   204.0000 </r>
       <r>     4.0086     0.0000   204.0000 </r>
       <r>     4.1096     0.0000   204.0000 </r>
       <r>     4.2106     0.0000   204.0000 </r>
       <r>     4.3117     0.0000   204.0000 </r>
      </set>
     </set>
    </array>
   </total>
  </dos>
 </calculation>
 <structure name="finalpos" >
  <crystal>
   <varray name="basis" >
    <v>       9.55575275       0.00000000       0.00000000 </v>
    <v>      -4.77787638       8.27552464       0.00000000 </v>
    <v>       0.00000000       0.00000000      32.62509537 </v>
   </varray>
   <i name="volume">   2579.95558872 </i>
   <varray name="rec_basis" >
    <v>       0.10464900       0.06041913       0.00000000 </v>
    <v>       0.00000000       0.12083826       0.00000000 </v>
    <v>       0.00000000       0.00000000       0.03065125 </v>
   </varray>
  </crystal>
  <varray name="positions" >
   <v>       0.00000000       0.00000000       0.00000000 </v>
   <v>       0.99950246       0.99984916       0.15793135 </v>
   <v>       0.00073518       0.00208950       0.32961268 </v>
   <v>       0.00000001       0.33333336       0.00000000 </v>
   <v>       0.00024890       0.33282032       0.15737408 </v>
   <v>       0.99630881       0.33207080       0.30980494 </v>
   <v>       0.00000002       0.66666672       0.00000000 </v>
   <v>       0.99898313       0.66460687       0.15731243 </v>
   <v>       0.00259023       0.66973432       0.31300643 </v>
   <v>       0.33333334       0.00000000       0.00000000 </v>
   <v>       0.33403163       0.99987119       0.15710460 </v>
   <v>       0.32751755       0.99728173       0.30797920 </v>
   <v>       0.33333335       0.33333336       0.00000000 </v>
   <v>       0.33354361       0.33346128       0.15762686 </v>
   <v>       0.32449574       0.33291576       0.31330002 </v>
   <v>       0.33333336       0.66666672       0.00000000 </v>
   <v>       0.33335948       0.66598676       0.15821103 </v>
   <v>       0.32248510       0.66363569       0.33016693 </v>
   <v>       0.66666668       0.00000000       0.00000000 </v>
   <v>       0.66644575       0.99844432       0.15720850 </v>
   <v>       0.66480878       0.99507716       0.31290626 </v>
   <v>       0.66666668       0.33333336       0.00000000 </v>
   <v>       0.66630330       0.33320479       0.15824308 </v>
   <v>       0.66110860       0.31800814       0.32212712 </v>
   <v>       0.66666670       0.66666672       0.00000000 </v>
   <v>       0.66735317       0.66589110       0.15843395 </v>
   <v>       0.67489435       0.66968117       0.31512586 </v>
   <v>       0.11111113       0.22222222       0.07982145 </v>
   <v>       0.11033931       0.21767615       0.23580067 </v>
   <v>       0.11111114       0.55555561       0.07982145 </v>
   <v>       0.11548917       0.55804154       0.23578559 </v>
   <v>       0.11111116       0.88888894       0.07982145 </v>
   <v>       0.10798744       0.88637572       0.23352360 </v>
   <v>       0.44444450       0.22222222       0.07982145 </v>
   <v>       0.44645421       0.22537145       0.23551864 </v>
   <v>       0.44444450       0.55555561       0.07982145 </v>
   <v>       0.44530173       0.55791172       0.23690488 </v>
   <v>       0.44444451       0.88888894       0.07982145 </v>
   <v>       0.44423985       0.88512214       0.23513446 </v>
   <v>       0.77777779       0.22222222       0.07982145 </v>
   <v>       0.77392725       0.21911310       0.23446130 </v>
   <v>       0.77777781       0.55555561       0.07982145 </v>
   <v>       0.77574788       0.54993343       0.23758911 </v>
   <v>       0.77777784       0.88888894       0.07982145 </v>
   <v>       0.78118930       0.88845676       0.23693514 </v>
   <v>       0.99141534       0.00815999       0.39619636 </v>
   <v>       0.27692298       0.97174481       0.41174998 </v>
   <v>       0.89507143       0.25017864       0.41115727 </v>
   <v>       0.63843350       0.32154151       0.38882014 </v>
   <v>       0.61817684       0.59932718       0.38251324 </v>
   <v>       0.29979894       0.69286022       0.39665373 </v>
   <v>       0.97094046       0.09141797       0.40809408 </v>
   <v>       0.08207643       0.01015987       0.41107789 </v>
   <v>       0.38164910       0.07270335       0.41173490 </v>
   <v>       0.24632045       0.95753716       0.38199373 </v>
   <v>       0.99452681       0.35513592       0.40814389 </v>
   <v>       0.86344932       0.21635091       0.38189830 </v>
   <v>       0.64345979       0.42510723       0.39546197 </v>
   <v>       0.72557075       0.31662056       0.40386133 </v>
   <v>       0.65100566       0.69860704       0.39839395 </v>
   <v>       0.50193118       0.55532573       0.37310002 </v>
   <v>       0.29896032       0.79161455       0.40622361 </v>
   <v>       0.35614594       0.66623033       0.41749063 </v>
  </varray>
  <varray name="selective"  type="logical" >
   <v type="logical" >  F  F  F </v>
   <v type="logical" >  T  T  T </v>
   <v type="logical" >  T  T  T </v>
   <v type="logical" >  F  F  F </v>
   <v type="logical" >  T  T  T </v>
   <v type="logical" >  T  T  T </v>
   <v type="logical" >  F  F  F </v>
   <v type="logical" >  T  T  T </v>
   <v type="logical" >  T  T  T </v>
   <v type="logical" >  F  F  F </v>
   <v type="logical" >  T  T  T </v>
   <v type="logical" >  T  T  T </v>
   <v type="logical" >  F  F  F </v>
   <v type="logical" >  T  T  T </v>
   <v type="logical" >  T  T  T </v>
   <v type="logical" >  F  F  F </v>
   <v type="logical" >  T  T  T </v>
   <v type="logical" >  T  T  T </v>
   <v type="logical" >  F  F  F </v>
   <v type="logical" >  T  T  T </v>
   <v type="logical" >  T  T  T </v>
   <v type="logical" >  F  F  F </v>
   <v type="logical" >  T  T  T </v>
   <v type="logical" >  T  T  T </v>
   <v type="logical" >  F  F  F </v>
   <v type="logical" >  T  T  T </v>
   <v type="logical" >  T  T  T </v>
   <v type="logical" >  F  F  F </v>
   <v type="logical" >  T  T  T </v>
   <v type="logical" >  F  F  F </v>
   <v type="logical" >  T  T  T </v>
   <v type="logical" >  F  F  F </v>
   <v type="logical" >  T  T  T </v>
   <v type="logical" >  F  F  F </v>
   <v type="logical" >  T  T  T </v>
   <v type="logical" >  F  F  F </v>
   <v type="logical" >  T  T  T </v>
   <v type="logical" >  F  F  F </v>
   <v type="logical" >  T  T  T </v>
   <v type="logical" >  F  F  F </v>
   <v type="logical" >  T  T  T </v>
   <v type="logical" >  F  F  F </v>
   <v type="logical" >  T  T  T </v>
   <v type="logical" >  F  F  F </v>
   <v type="logical" >  T  T  T </v>
   <v type="logical" >  T  T  T </v>
   <v type="logical" >  T  T  T </v>
   <v type="logical" >  T  T  T </v>
   <v type="logical" >  T  T  T </v>
   <v type="logical" >  T  T  T </v>
   <v type="logical" >  T  T  T </v>
   <v type="logical" >  T  T  T </v>
   <v type="logical" >  T  T  T </v>
   <v type="logical" >  T  T  T </v>
   <v type="logical" >  T  T  T </v>
   <v type="logical" >  T  T  T </v>
   <v type="logical" >  T  T  T </v>
   <v type="logical" >  T  T  T </v>
   <v type="logical" >  T  T  T </v>
   <v type="logical" >  T  T  T </v>
   <v type="logical" >  T  T  T </v>
   <v type="logical" >  T  T  T </v>
   <v type="logical" >  T  T  T </v>
  </varray>
  <nose>
   <v>      -3.00000000       0.00000000       0.00010000       0.00010000 </v>
  </nose>
 </structure>
</modeling>
