Mg_slab_in_a_box                        
           1
     9.555753    0.000000    0.000000
    -4.777876    8.275525    0.000000
     0.000000    0.000000   32.625095
   Mg   O    H 
  45   6  12
Direct configuration=     1
   0.00000000  0.00000000  0.00000000
   0.99950246  0.99984916  0.15793135
   0.00073518  0.00208950  0.32961268
   0.00000001  0.33333336  0.00000000
   0.00024890  0.33282032  0.15737408
   0.99630881  0.33207080  0.30980494
   0.00000002  0.66666672  0.00000000
   0.99898313  0.66460687  0.15731243
   0.00259023  0.66973432  0.31300643
   0.33333334  0.00000000  0.00000000
   0.33403163  0.99987119  0.15710460
   0.32751755  0.99728173  0.30797920
   0.33333335  0.33333336  0.00000000
   0.33354361  0.33346128  0.15762686
   0.32449574  0.33291576  0.31330002
   0.33333336  0.66666672  0.00000000
   0.33335948  0.66598676  0.15821103
   0.32248510  0.66363569  0.33016693
   0.66666668  0.00000000  0.00000000
   0.66644575  0.99844432  0.15720850
   0.66480878  0.99507716  0.31290626
   0.66666668  0.33333336  0.00000000
   0.66630330  0.33320479  0.15824308
   0.66110860  0.31800814  0.32212712
   0.66666670  0.66666672  0.00000000
   0.66735317  0.66589110  0.15843395
   0.67489435  0.66968117  0.31512586
   0.11111113  0.22222222  0.07982145
   0.11033931  0.21767615  0.23580067
   0.11111114  0.55555561  0.07982145
   0.11548917  0.55804154  0.23578559
   0.11111116  0.88888894  0.07982145
   0.10798744  0.88637572  0.23352360
   0.44444450  0.22222222  0.07982145
   0.44645421  0.22537145  0.23551864
   0.44444450  0.55555561  0.07982145
   0.44530173  0.55791172  0.23690488
   0.44444451  0.88888894  0.07982145
   0.44423985  0.88512214  0.23513446
   0.77777779  0.22222222  0.07982145
   0.77392725  0.21911310  0.23446130
   0.77777781  0.55555561  0.07982145
   0.77574788  0.54993343  0.23758911
   0.77777784  0.88888894  0.07982145
   0.78118930  0.88845676  0.23693514
   0.99141534  0.00815999  0.39619636
   0.27692298  0.97174481  0.41174998
   0.89507143  0.25017864  0.41115727
   0.63843350  0.32154151  0.38882014
   0.61817684  0.59932718  0.38251324
   0.29979894  0.69286022  0.39665373
   0.97094046  0.09141797  0.40809408
   0.08207643  0.01015987  0.41107789
   0.38164910  0.07270335  0.41173490
   0.24632045  0.95753716  0.38199373
   0.99452681  0.35513592  0.40814389
   0.86344932  0.21635091  0.38189830
   0.64345979  0.42510723  0.39546197
   0.72557075  0.31662056  0.40386133
   0.65100566  0.69860704  0.39839395
   0.50193118  0.55532573  0.37310002
   0.29896032  0.79161455  0.40622361
   0.35614594  0.66623033  0.41749063
