  63  63   0   0
  0.4095168E+02  0.9555753E-09  0.9555753E-09  0.3262510E-08  0.5000000E-15
  1.000000000000000E-004
  CAR 
 Mg_slab_in_a_box                        
      4.14445994    -25.95285056  301     -0.68482629      1.00000000
    -25.953  0.0000E+00  0.0000E+00
    -25.853  0.0000E+00  0.0000E+00
    -25.752  0.0000E+00  0.0000E+00
    -25.652  0.0000E+00  0.0000E+00
    -25.552  0.0000E+00  0.0000E+00
    -25.451  0.0000E+00  0.0000E+00
    -25.351  0.0000E+00  0.0000E+00
    -25.251  0.0000E+00  0.0000E+00
    -25.150  0.0000E+00  0.0000E+00
    -25.050  0.0000E+00  0.0000E+00
    -24.950  0.0000E+00  0.0000E+00
    -24.849  0.0000E+00  0.0000E+00
    -24.749  0.0000E+00  0.0000E+00
    -24.649  0.0000E+00  0.0000E+00
    -24.548  0.0000E+00  0.0000E+00
    -24.448  0.0000E+00  0.0000E+00
    -24.348  0.0000E+00  0.0000E+00
    -24.247  0.0000E+00  0.0000E+00
    -24.147  0.0000E+00  0.0000E+00
    -24.047  0.0000E+00  0.0000E+00
    -23.946  0.0000E+00  0.2000E+01
    -23.846  0.0000E+00  0.2000E+01
    -23.746  0.0000E+00  0.2000E+01
    -23.645  0.0000E+00  0.4000E+01
    -23.545  0.0000E+00  0.4000E+01
    -23.445  0.0000E+00  0.4000E+01
    -23.344  0.0000E+00  0.6000E+01
    -23.244  0.0000E+00  0.8000E+01
    -23.144  0.0000E+00  0.8000E+01
    -23.043  0.0000E+00  0.8000E+01
    -22.943  0.0000E+00  0.8000E+01
    -22.843  0.0000E+00  0.8000E+01
    -22.742  0.0000E+00  0.8000E+01
    -22.642  0.0000E+00  0.8000E+01
    -22.542  0.0000E+00  0.1000E+02
    -22.441  0.0000E+00  0.1000E+02
    -22.341  0.0000E+00  0.1000E+02
    -22.241  0.0000E+00  0.1000E+02
    -22.141  0.0000E+00  0.1000E+02
    -22.040  0.0000E+00  0.1000E+02
    -21.940  0.0000E+00  0.1000E+02
    -21.840  0.0000E+00  0.1000E+02
    -21.739  0.0000E+00  0.1000E+02
    -21.639  0.0000E+00  0.1000E+02
    -21.539  0.0000E+00  0.1000E+02
    -21.438  0.0000E+00  0.1000E+02
    -21.338  0.0000E+00  0.1000E+02
    -21.238  0.0000E+00  0.1000E+02
    -21.137  0.0000E+00  0.1000E+02
    -21.037  0.0000E+00  0.1000E+02
    -20.937  0.0000E+00  0.1000E+02
    -20.836  0.0000E+00  0.1000E+02
    -20.736  0.0000E+00  0.1000E+02
    -20.636  0.0000E+00  0.1200E+02
    -20.535  0.0000E+00  0.1200E+02
    -20.435  0.0000E+00  0.1200E+02
    -20.335  0.0000E+00  0.1200E+02
    -20.234  0.0000E+00  0.1200E+02
    -20.134  0.0000E+00  0.1200E+02
    -20.034  0.0000E+00  0.1200E+02
    -19.933  0.0000E+00  0.1200E+02
    -19.833  0.0000E+00  0.1200E+02
    -19.733  0.0000E+00  0.1200E+02
    -19.632  0.0000E+00  0.1200E+02
    -19.532  0.0000E+00  0.1200E+02
    -19.432  0.0000E+00  0.1200E+02
    -19.331  0.0000E+00  0.1200E+02
    -19.231  0.0000E+00  0.1200E+02
    -19.131  0.0000E+00  0.1200E+02
    -19.030  0.0000E+00  0.1200E+02
    -18.930  0.0000E+00  0.1200E+02
    -18.830  0.0000E+00  0.1200E+02
    -18.729  0.0000E+00  0.1200E+02
    -18.629  0.0000E+00  0.1200E+02
    -18.529  0.0000E+00  0.1200E+02
    -18.429  0.0000E+00  0.1200E+02
    -18.328  0.0000E+00  0.1200E+02
    -18.228  0.0000E+00  0.1200E+02
    -18.128  0.0000E+00  0.1200E+02
    -18.027  0.0000E+00  0.1200E+02
    -17.927  0.0000E+00  0.1200E+02
    -17.827  0.0000E+00  0.1200E+02
    -17.726  0.0000E+00  0.1200E+02
    -17.626  0.0000E+00  0.1200E+02
    -17.526  0.0000E+00  0.1200E+02
    -17.425  0.0000E+00  0.1200E+02
    -17.325  0.0000E+00  0.1200E+02
    -17.225  0.0000E+00  0.1200E+02
    -17.124  0.0000E+00  0.1200E+02
    -17.024  0.0000E+00  0.1200E+02
    -16.924  0.0000E+00  0.1200E+02
    -16.823  0.0000E+00  0.1200E+02
    -16.723  0.0000E+00  0.1200E+02
    -16.623  0.0000E+00  0.1200E+02
    -16.522  0.0000E+00  0.1200E+02
    -16.422  0.0000E+00  0.1200E+02
    -16.322  0.0000E+00  0.1200E+02
    -16.221  0.0000E+00  0.1200E+02
    -16.121  0.0000E+00  0.1200E+02
    -16.021  0.0000E+00  0.1200E+02
    -15.920  0.0000E+00  0.1200E+02
    -15.820  0.0000E+00  0.1200E+02
    -15.720  0.0000E+00  0.1200E+02
    -15.619  0.0000E+00  0.1200E+02
    -15.519  0.0000E+00  0.1200E+02
    -15.419  0.0000E+00  0.1200E+02
    -15.318  0.0000E+00  0.1200E+02
    -15.218  0.0000E+00  0.1200E+02
    -15.118  0.0000E+00  0.1200E+02
    -15.017  0.0000E+00  0.1200E+02
    -14.917  0.0000E+00  0.1200E+02
    -14.817  0.0000E+00  0.1200E+02
    -14.717  0.0000E+00  0.1200E+02
    -14.616  0.0000E+00  0.1200E+02
    -14.516  0.0000E+00  0.1200E+02
    -14.416  0.0000E+00  0.1200E+02
    -14.315  0.0000E+00  0.1200E+02
    -14.215  0.0000E+00  0.1200E+02
    -14.115  0.0000E+00  0.1200E+02
    -14.014  0.0000E+00  0.1200E+02
    -13.914  0.0000E+00  0.1200E+02
    -13.814  0.0000E+00  0.1200E+02
    -13.713  0.0000E+00  0.1200E+02
    -13.613  0.0000E+00  0.1200E+02
    -13.513  0.0000E+00  0.1200E+02
    -13.412  0.0000E+00  0.1200E+02
    -13.312  0.0000E+00  0.1200E+02
    -13.212  0.0000E+00  0.1200E+02
    -13.111  0.0000E+00  0.1200E+02
    -13.011  0.0000E+00  0.1200E+02
    -12.911  0.0000E+00  0.1200E+02
    -12.810  0.0000E+00  0.1200E+02
    -12.710  0.0000E+00  0.1200E+02
    -12.610  0.0000E+00  0.1200E+02
    -12.509  0.0000E+00  0.1200E+02
    -12.409  0.0000E+00  0.1200E+02
    -12.309  0.0000E+00  0.1200E+02
    -12.208  0.0000E+00  0.1200E+02
    -12.108  0.0000E+00  0.1200E+02
    -12.008  0.0000E+00  0.1200E+02
    -11.907  0.0000E+00  0.1400E+02
    -11.807  0.0000E+00  0.1400E+02
    -11.707  0.0000E+00  0.1600E+02
    -11.606  0.0000E+00  0.1600E+02
    -11.506  0.0000E+00  0.1600E+02
    -11.406  0.0000E+00  0.1600E+02
    -11.305  0.0000E+00  0.1600E+02
    -11.205  0.0000E+00  0.1600E+02
    -11.105  0.0000E+00  0.1800E+02
    -11.005  0.0000E+00  0.2000E+02
    -10.904  0.0000E+00  0.2000E+02
    -10.804  0.0000E+00  0.2200E+02
    -10.704  0.0000E+00  0.2200E+02
    -10.603  0.0000E+00  0.2200E+02
    -10.503  0.0000E+00  0.2200E+02
    -10.403  0.0000E+00  0.2200E+02
    -10.302  0.0000E+00  0.2200E+02
    -10.202  0.0000E+00  0.2200E+02
    -10.102  0.0000E+00  0.2200E+02
    -10.001  0.0000E+00  0.2200E+02
     -9.901  0.0000E+00  0.2200E+02
     -9.801  0.0000E+00  0.2200E+02
     -9.700  0.0000E+00  0.2200E+02
     -9.600  0.0000E+00  0.2200E+02
     -9.500  0.0000E+00  0.2200E+02
     -9.399  0.0000E+00  0.2200E+02
     -9.299  0.0000E+00  0.2200E+02
     -9.199  0.0000E+00  0.2200E+02
     -9.098  0.0000E+00  0.2200E+02
     -8.998  0.0000E+00  0.2200E+02
     -8.898  0.0000E+00  0.2400E+02
     -8.797  0.0000E+00  0.2400E+02
     -8.697  0.0000E+00  0.2400E+02
     -8.597  0.0000E+00  0.2600E+02
     -8.496  0.0000E+00  0.2600E+02
     -8.396  0.0000E+00  0.2600E+02
     -8.296  0.0000E+00  0.2800E+02
     -8.195  0.0000E+00  0.2800E+02
     -8.095  0.0000E+00  0.2800E+02
     -7.995  0.0000E+00  0.2800E+02
     -7.894  0.0000E+00  0.3000E+02
     -7.794  0.0000E+00  0.3200E+02
     -7.694  0.4621E+02  0.3230E+02
     -7.593  0.0000E+00  0.3400E+02
     -7.493  0.0000E+00  0.3400E+02
     -7.393  0.1224E+01  0.3403E+02
     -7.293  0.3879E+01  0.3428E+02
     -7.192  0.6976E+01  0.3483E+02
     -7.092  0.4893E+01  0.3542E+02
     -6.992  0.2809E+01  0.3581E+02
     -6.891  0.2854E+01  0.3602E+02
     -6.791  0.2078E+02  0.3674E+02
     -6.691  0.2335E+01  0.3803E+02
     -6.590  0.1620E+02  0.3883E+02
     -6.490  0.1734E+02  0.4106E+02
     -6.390  0.3550E+01  0.4192E+02
     -6.289  0.1225E+02  0.4358E+02
     -6.189  0.4549E+01  0.4547E+02
     -6.089  0.7937E+01  0.4600E+02
     -5.988  0.1578E+02  0.4719E+02
     -5.888  0.2694E+02  0.4933E+02
     -5.788  0.4183E+02  0.5248E+02
     -5.687  0.7193E+01  0.5494E+02
     -5.587  0.6549E+01  0.5707E+02
     -5.487  0.8524E+01  0.5762E+02
     -5.386  0.1247E+02  0.5936E+02
     -5.286  0.5833E+00  0.6000E+02
     -5.186  0.2974E+02  0.6190E+02
     -5.085  0.9629E+01  0.6305E+02
     -4.985  0.4749E+01  0.6377E+02
     -4.885  0.1471E+02  0.6525E+02
     -4.784  0.1332E+02  0.6626E+02
     -4.684  0.9407E+01  0.6766E+02
     -4.584  0.6011E+01  0.6842E+02
     -4.483  0.3707E+02  0.7023E+02
     -4.383  0.2196E+02  0.7238E+02
     -4.283  0.2116E+02  0.7428E+02
     -4.182  0.1919E+02  0.7639E+02
     -4.082  0.1033E+02  0.7826E+02
     -3.982  0.4310E+02  0.7949E+02
     -3.881  0.1386E+02  0.8070E+02
     -3.781  0.2188E+02  0.8309E+02
     -3.681  0.7023E+01  0.8457E+02
     -3.581  0.1617E+02  0.8599E+02
     -3.480  0.7840E+01  0.8710E+02
     -3.380  0.6906E+01  0.8783E+02
     -3.280  0.6879E+01  0.8852E+02
     -3.179  0.6852E+01  0.8921E+02
     -3.079  0.1790E+02  0.9126E+02
     -2.979  0.1945E+02  0.9314E+02
     -2.878  0.2970E+02  0.9553E+02
     -2.778  0.2911E+02  0.9878E+02
     -2.678  0.1318E+02  0.1009E+03
     -2.577  0.2787E+02  0.1021E+03
     -2.477  0.8589E+01  0.1040E+03
     -2.377  0.1268E+02  0.1064E+03
     -2.276  0.3358E+01  0.1075E+03
     -2.176  0.4356E+01  0.1093E+03
     -2.076  0.2772E+01  0.1096E+03
     -1.975  0.5023E+01  0.1113E+03
     -1.875  0.1707E+02  0.1124E+03
     -1.775  0.3192E+02  0.1149E+03
     -1.674  0.3112E+02  0.1180E+03
     -1.574  0.2840E+02  0.1211E+03
     -1.474  0.2103E+02  0.1235E+03
     -1.373  0.2070E+02  0.1256E+03
     -1.273  0.1310E+02  0.1273E+03
     -1.173  0.1071E+02  0.1284E+03
     -1.072  0.1448E+02  0.1296E+03
     -0.972  0.1880E+02  0.1318E+03
     -0.872  0.2061E+02  0.1345E+03
     -0.771  0.3118E+02  0.1366E+03
     -0.671  0.5764E+02  0.1388E+03
     -0.571  0.2815E+02  0.1425E+03
     -0.470  0.1301E+02  0.1443E+03
     -0.370  0.1118E+02  0.1452E+03
     -0.270  0.7731E+01  0.1468E+03
     -0.169  0.1213E+02  0.1478E+03
     -0.069  0.3067E+02  0.1497E+03
      0.031  0.4680E+02  0.1522E+03
      0.131  0.2723E+02  0.1545E+03
      0.232  0.2355E+02  0.1584E+03
      0.332  0.1355E+02  0.1603E+03
      0.432  0.0000E+00  0.1620E+03
      0.533  0.2513E+02  0.1649E+03
      0.633  0.3033E+02  0.1677E+03
      0.733  0.2229E+02  0.1698E+03
      0.834  0.1523E+02  0.1715E+03
      0.934  0.2942E+02  0.1741E+03
      1.034  0.2558E+02  0.1766E+03
      1.135  0.1622E+02  0.1794E+03
      1.235  0.1731E+02  0.1816E+03
      1.335  0.3301E+02  0.1850E+03
      1.436  0.3880E+02  0.1891E+03
      1.536  0.2177E+02  0.1930E+03
      1.636  0.4560E+02  0.1970E+03
      1.737  0.1478E+02  0.1999E+03
      1.837  0.1633E+02  0.2016E+03
      1.937  0.2501E+01  0.2023E+03
      2.038  0.1805E+02  0.2027E+03
      2.138  0.1056E+02  0.2039E+03
      2.238  0.0000E+00  0.2040E+03
      2.339  0.0000E+00  0.2040E+03
      2.439  0.0000E+00  0.2040E+03
      2.539  0.0000E+00  0.2040E+03
      2.640  0.0000E+00  0.2040E+03
      2.740  0.0000E+00  0.2040E+03
      2.840  0.0000E+00  0.2040E+03
      2.941  0.0000E+00  0.2040E+03
      3.041  0.0000E+00  0.2040E+03
      3.141  0.0000E+00  0.2040E+03
      3.242  0.0000E+00  0.2040E+03
      3.342  0.0000E+00  0.2040E+03
      3.442  0.0000E+00  0.2040E+03
      3.543  0.0000E+00  0.2040E+03
      3.643  0.0000E+00  0.2040E+03
      3.743  0.0000E+00  0.2040E+03
      3.843  0.0000E+00  0.2040E+03
      3.944  0.0000E+00  0.2040E+03
      4.044  0.0000E+00  0.2040E+03
      4.144  0.0000E+00  0.2040E+03
