 vasp.5.4.4.18Apr17-6-g9f103f2a35 (build Jun 08 2018 12:06:12) complex          
  
 executed on             LinuxIFC date 2019.06.06  07:03:29
 running on   72 total cores
 distrk:  each k-point on   72 cores,    1 groups
 distr:  one band on NCORES_PER_BAND=  24 cores,    3 groups


--------------------------------------------------------------------------------------------------------


 INCAR:
 POTCAR:    PAW_PBE Mg 13Apr2007                  
 POTCAR:    PAW_PBE O 08Apr2002                   
 POTCAR:    PAW_PBE H 15Jun2001                   

 ----------------------------------------------------------------------------- 
|                                                                             |
|           W    W    AA    RRRRR   N    N  II  N    N   GGGG   !!!           |
|           W    W   A  A   R    R  NN   N  II  NN   N  G    G  !!!           |
|           W    W  A    A  R    R  N N  N  II  N N  N  G       !!!           |
|           W WW W  AAAAAA  RRRRR   N  N N  II  N  N N  G  GGG   !            |
|           WW  WW  A    A  R   R   N   NN  II  N   NN  G    G                |
|           W    W  A    A  R    R  N    N  II  N    N   GGGG   !!!           |
|                                                                             |
|      For optimal performance we recommend to set                            |
|        NCORE= 4 - approx SQRT( number of cores)                             |
|      NCORE specifies how many cores store one orbital (NPAR=cpu/NCORE).     |
|      This setting can  greatly improve the performance of VASP for DFT.     |
|      The default,   NCORE=1            might be grossly inefficient         |
|      on modern multi-core architectures or massively parallel machines.     |
|      Do your own testing !!!!                                               |
|      Unfortunately you need to use the default for GW and RPA calculations. |
|      (for HF NCORE is supported but not extensively tested yet)             |
|                                                                             |
 ----------------------------------------------------------------------------- 


 ----------------------------------------------------------------------------- 
|                                                                             |
|  ADVICE TO THIS USER RUNNING 'VASP/VAMP'   (HEAR YOUR MASTER'S VOICE ...):  |
|                                                                             |
|      You have switched on vdW-DFT.                                          |
|      This routine was written and supplied by Jiri Klimes.                  |
|      We recommed that you carefully read and cite the following             |
|      publication                                                            |
|      J. Klimes, D.R. Bowler, A. Michelides                                  |
|        J. Phys.: Cond Matt. 22 022201 (2010)                                |
|      J. Klimes, D.R. Bowler, A. Michelides                                  |
|        Phys. Rev. B. 83, 195131 (2011)                                      |
|      and references therein.                                                |
|                                                                             |
 ----------------------------------------------------------------------------- 

 POTCAR:    PAW_PBE Mg 13Apr2007                  
   VRHFIN =Mg: s2p0                                                             
   LEXCH  = PE                                                                  
   EATOM  =    23.0369 eV,    1.6932 Ry                                         
                                                                                
   TITEL  = PAW_PBE Mg 13Apr2007                                                
   LULTRA =        F    use ultrasoft PP ?                                      
   IUNSCR =        1    unscreen: 0-lin 1-nonlin 2-no                           
   RPACOR =    1.500    partial core radius                                     
   POMASS =   24.305; ZVAL   =    2.000    mass and valenz                      
   RCORE  =    2.000    outmost cutoff radius                                   
   RWIGS  =    2.880; RWIGS  =    1.524    wigner-seitz radius (au A)           
   ENMAX  =  200.000; ENMIN  =  100.000 eV                                      
   RCLOC  =    1.506    cutoff for local pot                                    
   LCOR   =        T    correct aug charges                                     
   LPAW   =        T    paw PP                                                  
   EAUG   =  454.734                                                            
   DEXC   =    0.000                                                            
   RMAX   =    2.045    core radius for proj-oper                               
   RAUG   =    1.300    factor for augmentation sphere                          
   RDEP   =    2.025    radius for radial grids                                 
   RDEPT  =    1.942    core radius for aug-charge                              
                                                                                
   Atomic configuration                                                         
    6 entries                                                                   
     n  l   j            E        occ.                                          
     1  0  0.50     -1259.6230   2.0000                                         
     2  0  0.50       -79.8442   2.0000                                         
     2  1  1.50       -46.6121   6.0000                                         
     3  0  0.50        -4.7055   2.0000                                         
     3  1  0.50        -1.3660   0.0000                                         
     3  2  1.50        -1.3606   0.0000                                         
   Description                                                                  
     l       E           TYP  RCUT    TYP  RCUT                                 
     0     -4.7054661     23  2.000                                             
     0     27.2116520     23  2.000                                             
     1      1.3605826     23  2.000                                             
     1     27.2116520     23  2.000                                             
     2     -1.3605826     23  2.000                                             
  local pseudopotential read in
  partial core-charges read in
  partial kinetic energy density read in
  atomic valenz-charges read in
  non local Contribution for L=           0  read in
    real space projection operators read in
  non local Contribution for L=           0  read in
    real space projection operators read in
  non local Contribution for L=           1  read in
    real space projection operators read in
  non local Contribution for L=           1  read in
    real space projection operators read in
  non local Contribution for L=           2  read in
    real space projection operators read in
    PAW grid and wavefunctions read in
 
   number of l-projection  operators is LMAX  =           5
   number of lm-projection operators is LMMAX =          13
 
 POTCAR:    PAW_PBE O 08Apr2002                   
   VRHFIN =O: s2p4                                                              
   LEXCH  = PE                                                                  
   EATOM  =   432.3788 eV,   31.7789 Ry                                         
                                                                                
   TITEL  = PAW_PBE O 08Apr2002                                                 
   LULTRA =        F    use ultrasoft PP ?                                      
   IUNSCR =        1    unscreen: 0-lin 1-nonlin 2-no                           
   RPACOR =    1.200    partial core radius                                     
   POMASS =   16.000; ZVAL   =    6.000    mass and valenz                      
   RCORE  =    1.520    outmost cutoff radius                                   
   RWIGS  =    1.550; RWIGS  =    0.820    wigner-seitz radius (au A)           
   ENMAX  =  400.000; ENMIN  =  300.000 eV                                      
   ICORE  =        2    local potential                                         
   LCOR   =        T    correct aug charges                                     
   LPAW   =        T    paw PP                                                  
   EAUG   =  605.392                                                            
   DEXC   =    0.000                                                            
   RMAX   =    1.553    core radius for proj-oper                               
   RAUG   =    1.300    factor for augmentation sphere                          
   RDEP   =    1.550    radius for radial grids                                 
   RDEPT  =    1.329    core radius for aug-charge                              
                                                                                
   Atomic configuration                                                         
    4 entries                                                                   
     n  l   j            E        occ.                                          
     1  0  0.50      -514.6923   2.0000                                         
     2  0  0.50       -23.9615   2.0000                                         
     2  1  0.50        -9.0305   4.0000                                         
     3  2  1.50        -9.5241   0.0000                                         
   Description                                                                  
     l       E           TYP  RCUT    TYP  RCUT                                 
     0    -23.9615318     23  1.200                                             
     0     -9.5240782     23  1.200                                             
     1     -9.0304911     23  1.520                                             
     1      8.1634956     23  1.520                                             
     2     -9.5240782      7  1.500                                             
  local pseudopotential read in
  partial core-charges read in
  partial kinetic energy density read in
  kinetic energy density of atom read in
  atomic valenz-charges read in
  non local Contribution for L=           0  read in
    real space projection operators read in
  non local Contribution for L=           0  read in
    real space projection operators read in
  non local Contribution for L=           1  read in
    real space projection operators read in
  non local Contribution for L=           1  read in
    real space projection operators read in
    PAW grid and wavefunctions read in
 
   number of l-projection  operators is LMAX  =           4
   number of lm-projection operators is LMMAX =           8
 
 POTCAR:    PAW_PBE H 15Jun2001                   
   VRHFIN =H: ultrasoft test                                                    
   LEXCH  = PE                                                                  
   EATOM  =    12.4884 eV,    0.9179 Ry                                         
                                                                                
   TITEL  = PAW_PBE H 15Jun2001                                                 
   LULTRA =        F    use ultrasoft PP ?                                      
   IUNSCR =        0    unscreen: 0-lin 1-nonlin 2-no                           
   RPACOR =    0.000    partial core radius                                     
   POMASS =    1.000; ZVAL   =    1.000    mass and valenz                      
   RCORE  =    1.100    outmost cutoff radius                                   
   RWIGS  =    0.700; RWIGS  =    0.370    wigner-seitz radius (au A)           
   ENMAX  =  250.000; ENMIN  =  200.000 eV                                      
   RCLOC  =    0.701    cutoff for local pot                                    
   LCOR   =        T    correct aug charges                                     
   LPAW   =        T    paw PP                                                  
   EAUG   =  400.000                                                            
   RMAX   =    1.123    core radius for proj-oper                               
   RAUG   =    1.200    factor for augmentation sphere                          
   RDEP   =    1.112    radius for radial grids                                 
   RDEPT  =    0.926    core radius for aug-charge                              
                                                                                
   Atomic configuration                                                         
    2 entries                                                                   
     n  l   j            E        occ.                                          
     1  0  0.50        -6.4927   1.0000                                         
     2  1  0.50        -3.4015   0.0000                                         
   Description                                                                  
     l       E           TYP  RCUT    TYP  RCUT                                 
     0     -6.4927494     23  1.100                                             
     0      6.8029130     23  1.100                                             
     1     -4.0817478     23  1.100                                             
  local pseudopotential read in
  atomic valenz-charges read in
  non local Contribution for L=           0  read in
    real space projection operators read in
  non local Contribution for L=           0  read in
    real space projection operators read in
  non local Contribution for L=           1  read in
    real space projection operators read in
    PAW grid and wavefunctions read in
 
   number of l-projection  operators is LMAX  =           3
   number of lm-projection operators is LMMAX =           5
 
 Optimization of the real space projectors (new method)

 maximal supplied QI-value         = 18.90
 optimisation between [QCUT,QGAM] = [ 11.53, 23.24] = [ 37.21,151.29] Ry 
 Optimized for a Real-space Cutoff    1.28 Angstroem

   l    n(q)    QCUT    max X(q) W(low)/X(q) W(high)/X(q)  e(spline) 
   0      9    11.527    28.265    0.62E-04    0.53E-04    0.73E-07
   0      9    11.527    10.429    0.52E-04    0.40E-04    0.58E-07
   1      8    11.527    13.073    0.98E-04    0.18E-03    0.86E-07
   1      8    11.527     9.625    0.79E-04    0.15E-03    0.74E-07
   2      8    11.527     4.652    0.22E-03    0.72E-04    0.47E-07
 Optimization of the real space projectors (new method)

 maximal supplied QI-value         = 24.76
 optimisation between [QCUT,QGAM] = [ 11.64, 23.27] = [ 37.91,151.63] Ry 
 Optimized for a Real-space Cutoff    1.14 Angstroem

   l    n(q)    QCUT    max X(q) W(low)/X(q) W(high)/X(q)  e(spline) 
   0      8    11.635    20.381    0.10E-03    0.33E-03    0.24E-06
   0      8    11.635    15.268    0.11E-03    0.35E-03    0.26E-06
   1      7    11.635     5.964    0.24E-03    0.31E-03    0.30E-06
   1      7    11.635     5.382    0.22E-03    0.25E-03    0.26E-06
 Optimization of the real space projectors (new method)

 maximal supplied QI-value         = 34.20
 optimisation between [QCUT,QGAM] = [ 11.63, 23.26] = [ 37.87,151.49] Ry 
 Optimized for a Real-space Cutoff    1.21 Angstroem

   l    n(q)    QCUT    max X(q) W(low)/X(q) W(high)/X(q)  e(spline) 
   0      8    11.629    19.460    0.17E-03    0.34E-03    0.21E-06
   0      8    11.629    12.209    0.16E-03    0.33E-03    0.21E-06
   1      8    11.629     4.655    0.18E-03    0.16E-03    0.26E-06

 ----------------------------------------------------------------------------- 
|                                                                             |
|  ADVICE TO THIS USER RUNNING 'VASP/VAMP'   (HEAR YOUR MASTER'S VOICE ...):  |
|                                                                             |
|      You enforced a specific xc-type in the INCAR file,                     |
|      a different type was found on the POTCAR file                          |
|          I HOPE YOU KNOW, WHAT YOU ARE  DOING                               |
|                                                                             |
 ----------------------------------------------------------------------------- 

  PAW_PBE Mg 13Apr2007                  :
 energy of atom  1       EATOM=  -23.0369
 kinetic energy error for atom=    0.0000 (will be added to EATOM!!)
  PAW_PBE O 08Apr2002                   :
 energy of atom  2       EATOM= -432.3788
 kinetic energy error for atom=    0.0208 (will be added to EATOM!!)
  PAW_PBE H 15Jun2001                   :
 energy of atom  3       EATOM=  -12.4884
 kinetic energy error for atom=    0.0014 (will be added to EATOM!!)
 
 
 POSCAR: Mg   O    H                             
  positions in direct lattice
  velocities in cartesian coordinates
 exchange correlation table for  LEXCH =       42
   RHO(1)=    0.500       N(1)  =     2000
   RHO(2)=  100.500       N(2)  =     4000

 VTST: version 3.2, (02/03/18)

 CHAIN: initializing optimizer
 
 OPT: Using VASP Dynamics algorithm
 CHAIN: Read ICHAIN            0
 
 POSCAR: Mg   O    H                             
  positions in direct lattice
  velocities in cartesian coordinates
 


--------------------------------------------------------------------------------------------------------


 ion  position               nearest neighbor table
   1  0.000  0.000  0.000-   7 3.19  25 3.19  19 3.19  10 3.19   4 3.19  13 3.19  44 3.19  32 3.19
                            28 3.19
   2  0.999  0.999  0.158-  33 3.09  29 3.13  44 3.14  32 3.14  28 3.15  26 3.17  20 3.17   5 3.18
                            14 3.18   8 3.19  11 3.19  45 3.23
   3  0.002  0.003  0.331-  46 2.14  15 3.13  12 3.21   9 3.23  21 3.24   6 3.25  27 3.25  45 3.48
                            29 3.56  33 3.64
   4  0.000  0.333  0.000-  22 3.19  13 3.19  19 3.19  16 3.19   1 3.19   7 3.19  40 3.19  30 3.19
                            28 3.19
   5  0.000  0.333  0.158-  28 3.13  40 3.13  30 3.14  41 3.14  29 3.16  31 3.17  14 3.18  17 3.18
                             2 3.18   8 3.18  23 3.19  20 3.19
   6  0.991  0.330  0.310-  41 3.04  31 3.05  29 3.07  24 3.13  21 3.15  15 3.18   9 3.20   3 3.25
                            18 3.26
   7  0.000  0.667  0.000-   1 3.19  10 3.19  25 3.19  16 3.19  22 3.19   4 3.19  42 3.19  32 3.19
                            30 3.19
   8  0.999  0.665  0.158-  33 3.09  42 3.13  30 3.13  32 3.14  26 3.16  31 3.17  23 3.17  17 3.18
                             5 3.18   2 3.19  11 3.19  43 3.31
   9  0.003  0.671  0.314-  43 3.04  18 3.09  12 3.10  33 3.14  31 3.14   6 3.20   3 3.23  27 3.28
                            24 3.37
  10  0.333  0.000  0.000-  16 3.19   7 3.19  19 3.19   1 3.19  22 3.19  13 3.19  32 3.19  34 3.19
                            38 3.19
  11  0.333  0.999  0.157-  38 3.12  32 3.12  34 3.12  33 3.14  17 3.18  39 3.18  14 3.18  35 3.19
                            20 3.19  23 3.19   2 3.19   8 3.19
  12  0.325  0.997  0.308-  33 3.02  35 3.02  39 3.05   9 3.10  24 3.16  15 3.18  18 3.20   3 3.21
                            21 3.24
  13  0.333  0.333  0.000-  22 3.19   4 3.19  10 3.19   1 3.19  25 3.19  16 3.19  28 3.19  36 3.19
                            34 3.19
  14  0.333  0.332  0.157-  28 3.12  34 3.12  36 3.13  37 3.15  35 3.15  29 3.17   5 3.18  11 3.18
                            23 3.18   2 3.18  17 3.20  26 3.21
  15  0.322  0.327  0.313-  61 1.91  29 3.06   3 3.13  35 3.13  37 3.17  12 3.18   6 3.18  27 3.26
                            24 3.32  18 3.33
  16  0.333  0.667  0.000-  10 3.19  19 3.19   7 3.19  25 3.19   4 3.19  13 3.19  38 3.19  30 3.19
                            36 3.19
  17  0.332  0.666  0.158-  39 3.11  31 3.12  37 3.12  30 3.14  38 3.15  36 3.15  11 3.18  20 3.18
                             5 3.18   8 3.18  14 3.20  26 3.21
  18  0.319  0.668  0.332-  61 1.91  51 2.14   9 3.09  12 3.20   6 3.26  27 3.28  21 3.28  15 3.33
                            31 3.54  39 3.61
  19  0.667  0.000  0.000-  25 3.19  16 3.19   1 3.19  10 3.19   4 3.19  22 3.19  38 3.19  44 3.19
                            40 3.19
  20  0.666  0.998  0.157-  41 3.11  44 3.12  38 3.13  40 3.14  39 3.15   2 3.17  26 3.18  17 3.18
                            11 3.19   5 3.19  23 3.21  45 3.28
  21  0.664  0.997  0.313-  45 3.05  24 3.07  39 3.12  41 3.15   6 3.15  27 3.17   3 3.24  12 3.24
                            18 3.28
  22  0.667  0.333  0.000-  13 3.19   4 3.19  10 3.19  25 3.19   7 3.19  19 3.19  34 3.19  42 3.19
                            40 3.19
  23  0.667  0.334  0.159-  41 3.09  35 3.11  42 3.16  34 3.16  40 3.17  26 3.17   8 3.17  14 3.18
                            11 3.19   5 3.19  20 3.21  43 3.22
  24  0.659  0.313  0.325-  49 2.08  21 3.07   6 3.13  12 3.16  15 3.32  27 3.36  43 3.37   9 3.37
                            35 3.40  41 3.42
  25  0.667  0.667  0.000-   1 3.19  19 3.19   7 3.19  16 3.19  22 3.19  13 3.19  36 3.19  42 3.19
                            44 3.19
  26  0.669  0.666  0.159-  37 3.10  42 3.16   8 3.16   2 3.17  44 3.17  23 3.17  36 3.18  20 3.18
                            45 3.20  14 3.21  17 3.21  43 3.24
  27  0.660  0.665  0.326-  50 1.96  61 2.04  21 3.17   3 3.25  15 3.26  18 3.28   9 3.28  45 3.35
                            43 3.36  24 3.36  37 3.45
  28  0.111  0.222  0.080-  14 3.12   5 3.13   2 3.15  44 3.19  32 3.19  40 3.19  34 3.19  36 3.19
                            30 3.19   1 3.19  13 3.19   4 3.19
  29  0.109  0.218  0.236-  15 3.06   6 3.07   2 3.13   5 3.16  33 3.16  14 3.17  45 3.17  35 3.18
                            31 3.21  41 3.21  37 3.22   3 3.56
  30  0.111  0.556  0.080-   8 3.13   5 3.14  17 3.14  32 3.19  42 3.19  38 3.19  40 3.19  36 3.19
                            28 3.19  16 3.19   7 3.19   4 3.19
  31  0.116  0.557  0.236-   6 3.05  39 3.12  17 3.12   9 3.14  37 3.16   8 3.17   5 3.17  33 3.18
                            29 3.21  43 3.25  41 3.26  18 3.54
  32  0.111  0.889  0.080-  11 3.12   8 3.14   2 3.14  28 3.19  34 3.19  44 3.19  30 3.19  42 3.19
                            38 3.19  10 3.19   1 3.19   7 3.19
  33  0.107  0.886  0.234-  12 3.02   2 3.09   8 3.09  45 3.13  11 3.14   9 3.14  29 3.16  31 3.18
                            43 3.22  39 3.23  35 3.24   3 3.64
  34  0.444  0.222  0.080-  14 3.12  11 3.12  23 3.16  38 3.19  40 3.19  32 3.19  42 3.19  28 3.19
                            36 3.19  22 3.19  10 3.19  13 3.19
  35  0.446  0.225  0.236-  12 3.02  43 3.11  23 3.11  15 3.13  14 3.15  41 3.16  37 3.17  29 3.18
                            11 3.19  33 3.24  39 3.26  24 3.40
  36  0.444  0.556  0.080-  14 3.13  17 3.15  26 3.18  42 3.19  38 3.19  44 3.19  30 3.19  28 3.19
                            34 3.19  25 3.19  13 3.19  16 3.19
  37  0.446  0.556  0.235-  26 3.10  17 3.12  39 3.13  14 3.15  43 3.16  31 3.16  45 3.17  35 3.17
                            15 3.17  29 3.22  27 3.45
  38  0.444  0.889  0.080-  11 3.12  20 3.13  17 3.15  40 3.19  34 3.19  44 3.19  36 3.19  30 3.19
                            32 3.19  19 3.19  16 3.19  10 3.19
  39  0.443  0.883  0.236-  12 3.05  17 3.11  31 3.12  21 3.12  37 3.13  20 3.15  41 3.18  11 3.18
                            45 3.21  33 3.23  35 3.26  18 3.61
  40  0.778  0.222  0.080-   5 3.13  20 3.14  23 3.17  38 3.19  34 3.19  44 3.19  28 3.19  30 3.19
                            42 3.19   4 3.19  19 3.19  22 3.19
  41  0.773  0.218  0.235-   6 3.04  23 3.09  20 3.11   5 3.14  21 3.15  35 3.16  39 3.18  43 3.18
                            29 3.21  45 3.23  31 3.26  24 3.42
  42  0.778  0.556  0.080-   8 3.13  26 3.16  23 3.16  36 3.19  44 3.19  30 3.19  32 3.19  34 3.19
                            40 3.19  25 3.19   7 3.19  22 3.19
  43  0.772  0.549  0.241-   9 3.04  35 3.11  37 3.16  45 3.16  41 3.18  33 3.22  23 3.22  26 3.24
                            31 3.25   8 3.31  27 3.36  24 3.37
  44  0.778  0.889  0.080-  20 3.12   2 3.14  26 3.17  28 3.19  40 3.19  42 3.19  32 3.19  38 3.19
                            36 3.19   1 3.19  19 3.19  25 3.19
  45  0.780  0.884  0.240-  21 3.05  33 3.13  43 3.16  37 3.17  29 3.17  26 3.20  39 3.21  41 3.23
                             2 3.23  20 3.28  27 3.35   3 3.48
  46  0.995  0.013  0.396-  53 0.98  52 0.99   3 2.14
  47  0.280  0.971  0.412-  54 0.98  55 1.00
  48  0.901  0.246  0.412-  56 0.98  57 1.00
  49  0.634  0.333  0.388-  59 0.98  58 1.08  24 2.08
  50  0.661  0.605  0.384-  60 0.97  27 1.96
  51  0.305  0.691  0.397-  63 0.98  62 1.00  18 2.14
  52  0.973  0.095  0.408-  46 0.99
  53  0.083  0.011  0.412-  46 0.98
  54  0.383  0.074  0.412-  47 0.98
  55  0.246  0.955  0.383-  47 1.00
  56  0.996  0.354  0.409-  48 0.98
  57  0.861  0.218  0.383-  48 1.00
  58  0.648  0.452  0.391-  49 1.08
  59  0.716  0.326  0.405-  49 0.98
  60  0.697  0.686  0.405-  50 0.97
  61  0.417  0.537  0.337-  15 1.91  18 1.91  27 2.04
  62  0.304  0.788  0.407-  51 1.00
  63  0.377  0.673  0.415-  51 0.98
 
  LATTYP: Found a hexagonal cell.
 ALAT       =     9.5557527542
 C/A-ratio  =     3.4141837076
  
  Lattice vectors:
  
 A1 = (   9.5557527542,   0.0000000000,   0.0000000000)
 A2 = (  -4.7778763771,   8.2755246374,   0.0000000000)
 A3 = (   0.0000000000,   0.0000000000,  32.6250953674)


Analysis of symmetry for initial positions (statically):
=====================================================================
 Subroutine PRICEL returns:
 Original cell was already a primitive cell.
 

 Routine SETGRP: Setting up the symmetry group for a 
 hexagonal supercell.


 Subroutine GETGRP returns: Found  1 space group operations
 (whereof  1 operations were pure point group operations)
 out of a pool of 24 trial point group operations.


The static configuration has the point symmetry C_1 .


Analysis of symmetry for dynamics (positions and initial velocities):
=====================================================================
 Subroutine PRICEL returns:
 Original cell was already a primitive cell.
 

 Routine SETGRP: Setting up the symmetry group for a 
 hexagonal supercell.


 Subroutine GETGRP returns: Found  1 space group operations
 (whereof  1 operations were pure point group operations)
 out of a pool of 24 trial point group operations.


The dynamic configuration has the point symmetry C_1 .


Analysis of constrained symmetry for selective dynamics:
=====================================================================
 Subroutine PRICEL returns:
 Original cell was already a primitive cell.
 

 Routine SETGRP: Setting up the symmetry group for a 
 hexagonal supercell.


 Subroutine GETGRP returns: Found  1 space group operations
 (whereof  1 operations were pure point group operations)
 out of a pool of 24 trial point group operations.


The constrained configuration has the point symmetry C_1 .


 Subroutine INISYM returns: Found  1 space group operations
 (whereof  1 operations are pure point group operations),
 and found     1 'primitive' translations

 
 
 KPOINTS: Auto                                    

Automatic generation of k-mesh.
Space group operators:
 irot       det(A)        alpha          n_x          n_y          n_z        tau_x        tau_y        tau_z
    1     1.000000     0.000000     1.000000     0.000000     0.000000     0.000000     0.000000     0.000000
 
 Subroutine IBZKPT returns following result:
 ===========================================
 
 Found      5 irreducible k-points:
 
 Following reciprocal coordinates:
            Coordinates               Weight
  0.000000  0.000000  0.000000      1.000000
  0.333333 -0.000000  0.000000      2.000000
  0.000000  0.333333  0.000000      2.000000
  0.333333  0.333333  0.000000      2.000000
 -0.333333  0.333333  0.000000      2.000000
 
 Following cartesian coordinates:
            Coordinates               Weight
  0.000000  0.000000  0.000000      1.000000
  0.034883  0.020140  0.000000      2.000000
  0.000000  0.040279  0.000000      2.000000
  0.034883  0.060419  0.000000      2.000000
 -0.034883  0.020140  0.000000      2.000000
 
 TETIRR: Found     24 inequivalent tetrahedra from       54


--------------------------------------------------------------------------------------------------------




 Dimension of arrays:
   k-points           NKPTS =      5   k-points in BZ     NKDIM =      5   number of bands    NBANDS=    102
   number of dos      NEDOS =    301   number of ions     NIONS =     63
   non local maximal  LDIM  =      5   non local SUM 2l+1 LMDIM =     13
   total plane-waves  NPLWV = ******
   max r-space proj   IRMAX =   4509   max aug-charges    IRDMAX=  21536
   dimension x,y,z NGX =    72 NGY =   72 NGZ =  250
   dimension x,y,z NGXF=   144 NGYF=  144 NGZF=  500
   support grid    NGXF=   144 NGYF=  144 NGZF=  500
   ions per type =              45   6  12
   NGX,Y,Z   is equivalent  to a cutoff of  12.53, 12.53, 12.74 a.u.
   NGXF,Y,Z  is equivalent  to a cutoff of  25.05, 25.05, 25.48 a.u.

 SYSTEM =  Mg_slab_in_a_box                        
 POSCAR =  Mg   O    H                             

 Startparameter for this run:
   NWRITE =      2    write-flag & timer
   PREC   = accura    normal or accurate (medium, high low for compatibility)
   ISTART =      0    job   : 0-new  1-cont  2-samecut
   ICHARG =      2    charge: 1-file 2-atom 10-const
   ISPIN  =      1    spin polarized calculation?
   LNONCOLLINEAR =      F non collinear calculations
   LSORBIT =      F    spin-orbit coupling
   INIWAV =      1    electr: 0-lowe 1-rand  2-diag
   LASPH  =      T    aspherical Exc in radial PAW
   METAGGA=      F    non-selfconsistent MetaGGA calc.

 Electronic Relaxation 1
   ENCUT  =  520.0 eV  38.22 Ry    6.18 a.u.  17.77 17.77 60.66*2*pi/ulx,y,z
   ENINI  =  520.0     initial cutoff
   ENAUG  =  605.4 eV  augmentation charge cutoff
   NELM   =    300;   NELMIN=  6; NELMDL=-12     # of ELM steps 
   EDIFF  = 0.5E-05   stopping-criterion for ELM
   LREAL  =      T    real-space projection
   NLSPLINE    = F    spline interpolate recip. space projectors
   LCOMPAT=      F    compatible to vasp.4.4
   GGA_COMPAT  = T    GGA compatible to vasp.4.4-vasp.4.6
   LMAXPAW     = -100 max onsite density
   LMAXMIX     =    2 max onsite mixed and CHGCAR
   VOSKOWN=      0    Vosko Wilk Nusair interpolation
   ROPT   =   -0.00025  -0.00025  -0.00025
 Ionic relaxation
   EDIFFG = 0.5E-04   stopping-criterion for IOM
   NSW    =      0    number of steps for IOM
   NBLOCK =      1;   KBLOCK =      1    inner block; outer block 
   IBRION =     -1    ionic relax: 0-MD 1-quasi-New 2-CG
   NFREE  =      0    steps in history (QN), initial steepest desc. (CG)
   ISIF   =      2    stress and relaxation
   IWAVPR =     10    prediction:  0-non 1-charg 2-wave 3-comb
   ISYM   =      2    0-nonsym 1-usesym 2-fastsym
   LCORR  =      T    Harris-Foulkes like correction to forces

   POTIM  = 0.5000    time-step for ionic-motion
   TEIN   =    0.0    initial temperature
   TEBEG  =    0.0;   TEEND  =   0.0 temperature during run
   SMASS  =  -3.00    Nose mass-parameter (am)
   estimated Nose-frequenzy (Omega)   =  0.10E-29 period in steps =****** mass=  -0.209E-26a.u.
   SCALEE = 1.0000    scale energy and forces
   NPACO  =    256;   APACO  = 16.0  distance and # of slots for P.C.
   PSTRESS=    0.0 pullay stress

  Mass of Ions in am
   POMASS =  24.30 16.00  1.00
  Ionic Valenz
   ZVAL   =   2.00  6.00  1.00
  Atomic Wigner-Seitz radii
   RWIGS  =  -1.00 -1.00 -1.00
  virtual crystal weights 
   VCA    =   1.00  1.00  1.00
   NELECT =     138.0000    total number of electrons
   NUPDOWN=      -1.0000    fix difference up-down

 DOS related values:
   EMIN   =  10.00;   EMAX   =-10.00  energy-range for DOS
   EFERMI =   0.00
   ISMEAR =    -5;   SIGMA  =   0.20  broadening in eV -4-tet -1-fermi 0-gaus

 Electronic relaxation 2 (details)
   IALGO  =     48    algorithm
   LDIAG  =      T    sub-space diagonalisation (order eigenvalues)
   LSUBROT=      F    optimize rotation matrix (better conditioning)
   TURBO    =      0    0=normal 1=particle mesh
   IRESTART =      0    0=no restart 2=restart with 2 vectors
   NREBOOT  =      0    no. of reboots
   NMIN     =      0    reboot dimension
   EREF     =   0.00    reference energy to select bands
   IMIX   =      4    mixing-type and parameters
     AMIX     =   0.40;   BMIX     =  1.00
     AMIX_MAG =   1.60;   BMIX_MAG =  1.00
     AMIN     =   0.10
     WC   =   100.;   INIMIX=   1;  MIXPRE=   1;  MAXMIX= -45

 Intra band minimization:
   WEIMIN = 0.0000     energy-eigenvalue tresh-hold
   EBREAK =  0.12E-07  absolut break condition
   DEPER  =   0.30     relativ break condition  

   TIME   =   0.40     timestep for ELM

  volume/ion in A,a.u.               =      40.95       276.36
  Fermi-wavevector in a.u.,A,eV,Ry     =   0.616828  1.165635  5.176694  0.380476
  Thomas-Fermi vector in A             =   1.674695
 
 Write flags
   LWAVE        =      F    write WAVECAR
   LDOWNSAMPLE  =      F    k-point downsampling of WAVECAR
   LCHARG       =      T    write CHGCAR
   LVTOT        =      F    write LOCPOT, total local potential
   LVHAR        =      T    write LOCPOT, Hartree potential only
   LELF         =      F    write electronic localiz. function (ELF)
   LORBIT       =      0    0 simple, 1 ext, 2 COOP (PROOUT), +10 PAW based schemes


 Dipole corrections
   LMONO  =      F    monopole corrections only (constant potential shift)
   LDIPOL =      T    correct potential (dipole corrections)
   IDIPOL =      3    1-x, 2-y, 3-z, 4-all directions 
   EPSILON=  1.0000000 bulk dielectric constant

 Exchange correlation treatment:
   GGA     =    BO    GGA type
   LEXCH   =    42    internal setting for exchange type
   VOSKOWN=      0    Vosko Wilk Nusair interpolation
   LHFCALC =     F    Hartree Fock is set to
   LHFONE  =     F    Hartree Fock one center treatment
   AEXX    =    0.0000 exact exchange contribution

 vdW DFT:
   LUSE_VDW   =     T    switch on vdW DFT
   Zab_VDW    =-.8491    correlation parameter
   PARAM1     =0.1833
   PARAM2     =0.2200
   PARAM3     =0.0000
   -- rVV10 --
   BPARAM     = 6.3000
   CPARAM     = 0.0093

 Linear response parameters
   LEPSILON=     F    determine dielectric tensor
   LRPA    =     F    only Hartree local field effects (RPA)
   LNABLA  =     F    use nabla operator in PAW spheres
   LVEL    =     F    velocity operator in full k-point grid
   LINTERFAST=   F  fast interpolation
   KINTER  =     0    interpolate to denser k-point grid
   CSHIFT  =0.1000    complex shift for real part using Kramers Kronig
   OMEGAMAX=  -1.0    maximum frequency
   DEG_THRESHOLD= 0.2000000E-02 threshold for treating states as degnerate
   RTIME   =   -0.100 relaxation time in fs
  (WPLASMAI=    0.000 imaginary part of plasma frequency in eV, 0.658/RTIME)
   DFIELD  = 0.0000000 0.0000000 0.0000000 field for delta impulse in time
 
 Orbital magnetization related:
   ORBITALMAG=     F  switch on orbital magnetization
   LCHIMAG   =     F  perturbation theory with respect to B field
   DQ        =  0.001000  dq finite difference perturbation B field
   LLRAUG    =     F  two centre corrections for induced B field



--------------------------------------------------------------------------------------------------------


 Static calculation
 charge density and potential will be updated during run
 non-spin polarized calculation
 RMM-DIIS sequential band-by-band
 perform sub-space diagonalisation
    before iterative eigenvector-optimisation
 modified Broyden-mixing scheme, WC =      100.0
 initial mixing is a Kerker type mixing with AMIX =  0.4000 and BMIX =      1.0000
 Hartree-type preconditioning will be used
 using additional bands           33
 real space projection scheme for non local part
 use partial core corrections
 calculate Harris-corrections to forces 
   (improved forces if not selfconsistent)
 use gradient corrections 
 use of overlap-Matrix (Vanderbilt PP)
 Fermi weights with tetrahedron method with Bloechl corrections


--------------------------------------------------------------------------------------------------------


  energy-cutoff  :      520.00
  volume of cell :     2579.96
      direct lattice vectors                 reciprocal lattice vectors
     9.555752754  0.000000000  0.000000000     0.104649003  0.060419130  0.000000000
    -4.777876377  8.275524637  0.000000000     0.000000000  0.120838260  0.000000000
     0.000000000  0.000000000 32.625095367     0.000000000  0.000000000  0.030651251

  length of vectors
     9.555752754  9.555752754 32.625095367     0.120838260  0.120838260  0.030651251


 
 k-points in units of 2pi/SCALE and weight: Auto                                    
   0.00000000  0.00000000  0.00000000       0.111
   0.03488300  0.02013971  0.00000000       0.222
   0.00000000  0.04027942  0.00000000       0.222
   0.03488300  0.06041913  0.00000000       0.222
  -0.03488300  0.02013971  0.00000000       0.222
 
 k-points in reciprocal lattice and weights: Auto                                    
   0.00000000  0.00000000  0.00000000       0.111
   0.33333333 -0.00000000  0.00000000       0.222
   0.00000000  0.33333333  0.00000000       0.222
   0.33333333  0.33333333  0.00000000       0.222
  -0.33333333  0.33333333  0.00000000       0.222
 
 position of ions in fractional coordinates (direct lattice) 
   0.00000000  0.00000000  0.00000000
   0.99892505  0.99883519  0.15802013
   0.00150335  0.00318677  0.33052932
   0.00000001  0.33333336  0.00000000
   0.00007601  0.33256715  0.15751615
   0.99057138  0.33028593  0.30993721
   0.00000002  0.66666672  0.00000000
   0.99873161  0.66510545  0.15762065
   0.00260721  0.67106234  0.31364122
   0.33333334  0.00000000  0.00000000
   0.33328141  0.99917588  0.15705548
   0.32548213  0.99675960  0.30848079
   0.33333335  0.33333336  0.00000000
   0.33253070  0.33178186  0.15730196
   0.32151428  0.32708123  0.31303715
   0.33333336  0.66666672  0.00000000
   0.33245180  0.66627904  0.15802744
   0.31872250  0.66786804  0.33188312
   0.66666668  0.00000000  0.00000000
   0.66645386  0.99793202  0.15748064
   0.66448057  0.99700996  0.31341803
   0.66666668  0.33333336  0.00000000
   0.66650622  0.33361470  0.15878980
   0.65914896  0.31321194  0.32515660
   0.66666670  0.66666672  0.00000000
   0.66881183  0.66638379  0.15884196
   0.65972868  0.66548689  0.32613389
   0.11111113  0.22222222  0.07982145
   0.10917921  0.21800280  0.23610592
   0.11111114  0.55555561  0.07982145
   0.11556590  0.55719037  0.23634100
   0.11111116  0.88888894  0.07982145
   0.10706236  0.88587546  0.23419061
   0.44444450  0.22222222  0.07982145
   0.44582242  0.22511596  0.23610981
   0.44444450  0.55555561  0.07982145
   0.44555215  0.55626599  0.23527025
   0.44444451  0.88888894  0.07982145
   0.44322544  0.88275730  0.23584121
   0.77777779  0.22222222  0.07982145
   0.77289024  0.21777218  0.23474239
   0.77777781  0.55555561  0.07982145
   0.77174151  0.54905432  0.24101328
   0.77777784  0.88888894  0.07982145
   0.77963993  0.88394653  0.23983182
   0.99502426  0.01260302  0.39600059
   0.28001229  0.97067204  0.41207074
   0.90086891  0.24622316  0.41198845
   0.63446003  0.33299608  0.38797946
   0.66092583  0.60486234  0.38353546
   0.30535364  0.69081090  0.39681671
   0.97300488  0.09520376  0.40794693
   0.08255966  0.01144325  0.41156252
   0.38279210  0.07381129  0.41166998
   0.24641119  0.95515873  0.38262199
   0.99564931  0.35446876  0.40902606
   0.86076511  0.21767975  0.38317138
   0.64839269  0.45201627  0.39148159
   0.71624195  0.32649257  0.40467704
   0.69681002  0.68576912  0.40499748
   0.41727397  0.53732545  0.33695255
   0.30376624  0.78841343  0.40692493
   0.37664941  0.67271532  0.41472878
 
 position of ions in cartesian coordinates  (Angst):
   0.00000000  0.00000000  0.00000000
   4.77316973  8.26588522  5.15542185
  -0.00086036  0.02637216 10.78355056
  -1.59262550  2.75850844  0.00000000
  -1.58823839  2.75216763  5.13897932
   7.88758980  2.73328936 10.11173106
  -3.18525100  5.51701689  0.00000000
   6.36584075  5.50409655  5.14238862
  -3.18133902  5.55339295 10.23257466
   3.18525100  0.00000000  0.00000000
  -1.58918409  8.26870464  5.12394987
  -1.65216741  8.24870866 10.06421505
   1.59262550  2.75850844  0.00000000
   1.59236846  2.74566895  5.13199133
   1.50955724  2.70676880 10.21286683
  -0.00000001  5.51701689  0.00000000
  -0.00657167  5.51380858  5.15566037
  -0.14535754  5.52695843 10.82771852
   6.37050200  0.00000000  0.00000000
   1.60047244  8.25841101  5.13782090
   1.58602167  8.25078048 10.22529317
   4.77787638  2.75850844  0.00000000
   4.77499888  2.76083664  5.18053253
   4.80217653  2.59199313 10.60826525
   3.18525100  5.51701689  0.00000000
   3.20710114  5.51467543  5.18223425
   3.12459002  5.50725318 10.64014929
   0.00000017  1.83900547  2.60418248
   0.00169912  1.80408752  7.70297815
  -1.59262550  4.59751415  2.60418248
  -1.55786761  4.61104267  7.71064779
  -3.18525076  7.35602236  2.60418248
  -3.20954198  7.33108420  7.64049086
   3.18525147  1.83900547  2.60418248
   3.18459259  1.86295270  7.70310506
   1.59262574  4.59751415  2.60418248
   1.59981602  4.60339289  7.67571440
   0.00000039  7.35602236  2.60418248
   0.01764746  7.30527981  7.69434196
   6.37050200  1.83900547  2.60418248
   6.34505945  1.80217905  7.65849291
   4.77787638  4.59751415  2.60418248
   4.75125744  4.54371253  7.86308119
   3.18525124  7.35602236  2.60418248
   3.22665922  7.31512125  7.82453597
   9.44799011  0.10429659 12.91955706
  -1.96202275  8.03282038 13.44384715
   7.43205681  2.03762579 13.44116257
   4.47172902  2.75571728 12.65786683
   3.42568636  5.00555318 12.51288100
  -0.38272525  5.71682264 12.94618290
   8.84292225  0.78786103 13.30930747
   0.73424529  0.09469887 13.42726655
   3.30520543  0.61082712 13.43077250
  -2.20898591  7.90443957 12.48307884
   7.82057073  2.93341495 13.34451421
   7.18521157  1.80141417 12.50100271
   4.03620238  3.74067178 12.77212434
   5.28428986  2.70189732 13.20262691
   3.38202423  5.67509923 13.21308129
   1.42009234  4.44665000 10.99310895
  -0.86422681  6.52453479 13.27596474
   0.38501798  5.56707223 13.53056586
 


--------------------------------------------------------------------------------------------------------


 k-point  1 :   0.0000 0.0000 0.0000  plane waves:   69403
 k-point  2 :   0.3333-0.0000 0.0000  plane waves:   69509
 k-point  3 :   0.0000 0.3333 0.0000  plane waves:   69509
 k-point  4 :   0.3333 0.3333 0.0000  plane waves:   69474
 k-point  5 :  -0.3333 0.3333 0.0000  plane waves:   69509

 maximum and minimum number of plane-waves per node :      2924     2870

 maximum number of plane-waves:     69509
 maximum index in each direction: 
   IXMAX=   18   IYMAX=   17   IZMAX=   60
   IXMIN=  -18   IYMIN=  -18   IZMIN=  -60


 real space projection operators:
  total allocation   :      22576.55 KBytes
  max/ min on nodes  :       1317.84        516.60


 parallel 3D FFT for wavefunctions:
    minimum data exchange during FFTs selected (reduces bandwidth)
 parallel 3D FFT for charge:
    minimum data exchange during FFTs selected (reduces bandwidth)


 total amount of memory used by VASP MPI-rank0    62231. kBytes
=======================================================================

   base      :      30000. kBytes
   nonlr-proj:       6328. kBytes
   fftplans  :       6459. kBytes
   grid      :      11407. kBytes
   one-center:         24. kBytes
   wavefun   :       8013. kBytes
 
     INWAV:  cpu time    0.0001: real time    0.0008
 Broyden mixing: mesh for mixing (old mesh)
   NGX = 35   NGY = 35   NGZ =121
  (NGX  =144   NGY  =144   NGZ  =500)
  gives a total of 148225 points

 initial charge density was supplied:
 charge density of overlapping atoms calculated
 number of electron     138.0000000 magnetization 
 keeping initial charge density in first step


--------------------------------------------------------------------------------------------------------


 Maximum index for non-local projection operator          296
 Maximum index for augmentation-charges          837 (set IRDMAX)


--------------------------------------------------------------------------------------------------------


 First call to EWALD:  gamma=   0.129
 Maximum number of real-space cells 4x 4x 1
 Maximum number of reciprocal cells 2x 2x 6

    FEWALD:  cpu time    0.0022: real time    0.0022


--------------------------------------- Iteration      1(   1)  ---------------------------------------


vdW kernel read from vdw_kernel.bindat
  0.0000  0.2424  0.5071  0.7962  1.1119  1.4567  1.8333  2.2446  2.6937  3.1842
  3.7199  4.3049  4.9438  5.6415  6.4036  7.2358  8.1446  9.1372 10.2212 11.4050
 12.6979 14.1099 15.6519 17.3360 19.1751 21.1837 23.3773 25.7729 28.3892 31.2465
 34.3669 37.7748 41.4965 45.5611 50.0000
 
    POTLOK:  cpu time    5.3334: real time    5.5221
    SETDIJ:  cpu time    0.1355: real time    0.1355
    EDDIAG:  cpu time    0.4820: real time    0.4831
  RMM-DIIS:  cpu time    1.0563: real time    1.0573
    ORTHCH:  cpu time    0.0717: real time    0.0717
 BZINTS: Fermi energy:  9.575245;138.000000 electrons
         Band energy: 211.895880;  BLOECHL correction: -0.150201
       DOS:  cpu time    0.0030: real time    0.0030
    --------------------------------------------
      LOOP:  cpu time    7.0818: real time    7.2727

 eigenvalue-minimisations  :   510
 total energy-change (2. order) : 0.1241432E+04  (-0.2793085E+04)
 number of electron     138.0000000 magnetization 
 augmentation part      138.0000000 magnetization 

 DIPCOR: dipole corrections for dipol
 direction  3 min pos   355,
 dipolmoment           0.000000      0.000000     -0.000395 electrons x Angstroem
 Tr[quadrupol]     -1866.221667

 energy correction for charged system         0.000000 eV
 dipol+quadrupol energy correction           -0.000000 eV
 added-field ion interaction          0.004229 eV  (added to PSCEN)


 Free energy of the ion-electron system (eV)
  ---------------------------------------------------
  alpha Z        PSCENC =        63.16529241
  Ewald energy   TEWEN  =     13025.98869463
  -Hartree energ DENC   =    -16252.68837123
  -exchange      EXHF   =         0.00000000
  -V(xc)+E(xc)   XCENC  =     -2051.06237104
  PAW double counting   =      5135.15659847    -2719.01140655
  entropy T*S    EENTRO =         0.00000000
  eigenvalues    EBANDS =       211.89588021
  atomic energy  EATOM  =      3827.98814510
  Solvation  Ediel_sol  =         0.00000000
  ---------------------------------------------------
  free energy    TOTEN  =      1241.43246200 eV

  energy without entropy =     1241.43246200  energy(sigma->0) =     1241.43246200


--------------------------------------------------------------------------------------------------------




--------------------------------------- Iteration      1(   2)  ---------------------------------------


    EDDIAG:  cpu time    0.4827: real time    0.5056
  RMM-DIIS:  cpu time    1.0545: real time    1.0552
    ORTHCH:  cpu time    0.0711: real time    0.0712
 BZINTS: Fermi energy:  2.099285;138.000000 electrons
         Band energy:-484.468714;  BLOECHL correction: -0.229119
       DOS:  cpu time    0.0032: real time    0.0032
    --------------------------------------------
      LOOP:  cpu time    1.6115: real time    1.6351

 eigenvalue-minimisations  :   510
 total energy-change (2. order) :-0.6963646E+03  (-0.7557181E+03)
 number of electron     138.0000000 magnetization 
 augmentation part      138.0000000 magnetization 

 DIPCOR: dipole corrections for dipol
 direction  3 min pos   355,
 dipolmoment           0.000000      0.000000     -0.000395 electrons x Angstroem
 Tr[quadrupol]     -1866.221667

 energy correction for charged system         0.000000 eV
 dipol+quadrupol energy correction           -0.000000 eV
 added-field ion interaction          0.004229 eV  (added to PSCEN)


 Free energy of the ion-electron system (eV)
  ---------------------------------------------------
  alpha Z        PSCENC =        63.16529241
  Ewald energy   TEWEN  =     13025.98869463
  -Hartree energ DENC   =    -16252.68837123
  -exchange      EXHF   =         0.00000000
  -V(xc)+E(xc)   XCENC  =     -2051.06237104
  PAW double counting   =      5135.15659847    -2719.01140655
  entropy T*S    EENTRO =         0.00000000
  eigenvalues    EBANDS =      -484.46871408
  atomic energy  EATOM  =      3827.98814510
  Solvation  Ediel_sol  =         0.00000000
  ---------------------------------------------------
  free energy    TOTEN  =       545.06786771 eV

  energy without entropy =      545.06786771  energy(sigma->0) =      545.06786771


--------------------------------------------------------------------------------------------------------




--------------------------------------- Iteration      1(   3)  ---------------------------------------


    EDDIAG:  cpu time    0.4866: real time    0.5112
  RMM-DIIS:  cpu time    1.0584: real time    1.0591
    ORTHCH:  cpu time    0.0717: real time    0.0717
 BZINTS: Fermi energy:  0.382958;138.000000 electrons
         Band energy:-719.480612;  BLOECHL correction: -0.436843
       DOS:  cpu time    0.0032: real time    0.0032
    --------------------------------------------
      LOOP:  cpu time    1.6198: real time    1.6452

 eigenvalue-minimisations  :   510
 total energy-change (2. order) :-0.2350119E+03  (-0.2988430E+03)
 number of electron     138.0000000 magnetization 
 augmentation part      138.0000000 magnetization 

 DIPCOR: dipole corrections for dipol
 direction  3 min pos   355,
 dipolmoment           0.000000      0.000000     -0.000395 electrons x Angstroem
 Tr[quadrupol]     -1866.221667

 energy correction for charged system         0.000000 eV
 dipol+quadrupol energy correction           -0.000000 eV
 added-field ion interaction          0.004229 eV  (added to PSCEN)


 Free energy of the ion-electron system (eV)
  ---------------------------------------------------
  alpha Z        PSCENC =        63.16529241
  Ewald energy   TEWEN  =     13025.98869463
  -Hartree energ DENC   =    -16252.68837123
  -exchange      EXHF   =         0.00000000
  -V(xc)+E(xc)   XCENC  =     -2051.06237104
  PAW double counting   =      5135.15659847    -2719.01140655
  entropy T*S    EENTRO =         0.00000000
  eigenvalues    EBANDS =      -719.48061180
  atomic energy  EATOM  =      3827.98814510
  Solvation  Ediel_sol  =         0.00000000
  ---------------------------------------------------
  free energy    TOTEN  =       310.05596999 eV

  energy without entropy =      310.05596999  energy(sigma->0) =      310.05596999


--------------------------------------------------------------------------------------------------------




--------------------------------------- Iteration      1(   4)  ---------------------------------------


    EDDIAG:  cpu time    0.4850: real time    0.5101
  RMM-DIIS:  cpu time    1.0586: real time    1.0612
    ORTHCH:  cpu time    0.0713: real time    0.0715
 BZINTS: Fermi energy: -0.656231;138.000000 electrons
         Band energy:-891.274686;  BLOECHL correction: -0.074120
       DOS:  cpu time    0.0031: real time    0.0031
    --------------------------------------------
      LOOP:  cpu time    1.6180: real time    1.6459

 eigenvalue-minimisations  :   510
 total energy-change (2. order) :-0.1717941E+03  (-0.1482438E+03)
 number of electron     138.0000000 magnetization 
 augmentation part      138.0000000 magnetization 

 DIPCOR: dipole corrections for dipol
 direction  3 min pos   355,
 dipolmoment           0.000000      0.000000     -0.000395 electrons x Angstroem
 Tr[quadrupol]     -1866.221667

 energy correction for charged system         0.000000 eV
 dipol+quadrupol energy correction           -0.000000 eV
 added-field ion interaction          0.004229 eV  (added to PSCEN)


 Free energy of the ion-electron system (eV)
  ---------------------------------------------------
  alpha Z        PSCENC =        63.16529241
  Ewald energy   TEWEN  =     13025.98869463
  -Hartree energ DENC   =    -16252.68837123
  -exchange      EXHF   =         0.00000000
  -V(xc)+E(xc)   XCENC  =     -2051.06237104
  PAW double counting   =      5135.15659847    -2719.01140655
  entropy T*S    EENTRO =         0.00000000
  eigenvalues    EBANDS =      -891.27468568
  atomic energy  EATOM  =      3827.98814510
  Solvation  Ediel_sol  =         0.00000000
  ---------------------------------------------------
  free energy    TOTEN  =       138.26189611 eV

  energy without entropy =      138.26189611  energy(sigma->0) =      138.26189611


--------------------------------------------------------------------------------------------------------




--------------------------------------- Iteration      1(   5)  ---------------------------------------


    EDDIAG:  cpu time    0.4876: real time    0.5132
  RMM-DIIS:  cpu time    1.0653: real time    1.0659
    ORTHCH:  cpu time    0.0715: real time    0.0715
 BZINTS: Fermi energy: -1.247404;138.000000 electrons
         Band energy:***********;  BLOECHL correction: -0.103259
       DOS:  cpu time    0.0031: real time    0.0031
    --------------------------------------------
      LOOP:  cpu time    1.6274: real time    1.6536

 eigenvalue-minimisations  :   510
 total energy-change (2. order) :-0.1150342E+03  (-0.9213936E+02)
 number of electron     138.0000000 magnetization 
 augmentation part      138.0000000 magnetization 

 DIPCOR: dipole corrections for dipol
 direction  3 min pos   355,
 dipolmoment           0.000000      0.000000     -0.000395 electrons x Angstroem
 Tr[quadrupol]     -1866.221667

 energy correction for charged system         0.000000 eV
 dipol+quadrupol energy correction           -0.000000 eV
 added-field ion interaction          0.004229 eV  (added to PSCEN)


 Free energy of the ion-electron system (eV)
  ---------------------------------------------------
  alpha Z        PSCENC =        63.16529241
  Ewald energy   TEWEN  =     13025.98869463
  -Hartree energ DENC   =    -16252.68837123
  -exchange      EXHF   =         0.00000000
  -V(xc)+E(xc)   XCENC  =     -2051.06237104
  PAW double counting   =      5135.15659847    -2719.01140655
  entropy T*S    EENTRO =         0.00000000
  eigenvalues    EBANDS =     -1006.30889301
  atomic energy  EATOM  =      3827.98814510
  Solvation  Ediel_sol  =         0.00000000
  ---------------------------------------------------
  free energy    TOTEN  =        23.22768877 eV

  energy without entropy =       23.22768877  energy(sigma->0) =       23.22768877


--------------------------------------------------------------------------------------------------------




--------------------------------------- Iteration      1(   6)  ---------------------------------------


    EDDIAG:  cpu time    0.4974: real time    0.5169
  RMM-DIIS:  cpu time    1.0606: real time    1.0610
    ORTHCH:  cpu time    0.0712: real time    0.0713
 BZINTS: Fermi energy: -1.370937;138.000000 electrons
         Band energy:***********;  BLOECHL correction: -0.067193
       DOS:  cpu time    0.0033: real time    0.0033
    --------------------------------------------
      LOOP:  cpu time    1.6325: real time    1.6524

 eigenvalue-minimisations  :   510
 total energy-change (2. order) :-0.6483666E+02  (-0.4897112E+02)
 number of electron     138.0000000 magnetization 
 augmentation part      138.0000000 magnetization 

 DIPCOR: dipole corrections for dipol
 direction  3 min pos   355,
 dipolmoment           0.000000      0.000000     -0.000395 electrons x Angstroem
 Tr[quadrupol]     -1866.221667

 energy correction for charged system         0.000000 eV
 dipol+quadrupol energy correction           -0.000000 eV
 added-field ion interaction          0.004229 eV  (added to PSCEN)


 Free energy of the ion-electron system (eV)
  ---------------------------------------------------
  alpha Z        PSCENC =        63.16529241
  Ewald energy   TEWEN  =     13025.98869463
  -Hartree energ DENC   =    -16252.68837123
  -exchange      EXHF   =         0.00000000
  -V(xc)+E(xc)   XCENC  =     -2051.06237104
  PAW double counting   =      5135.15659847    -2719.01140655
  entropy T*S    EENTRO =         0.00000000
  eigenvalues    EBANDS =     -1071.14555079
  atomic energy  EATOM  =      3827.98814510
  Solvation  Ediel_sol  =         0.00000000
  ---------------------------------------------------
  free energy    TOTEN  =       -41.60896900 eV

  energy without entropy =      -41.60896900  energy(sigma->0) =      -41.60896900


--------------------------------------------------------------------------------------------------------




--------------------------------------- Iteration      1(   7)  ---------------------------------------


    EDDIAG:  cpu time    0.4871: real time    0.5120
  RMM-DIIS:  cpu time    1.0576: real time    1.0582
    ORTHCH:  cpu time    0.0713: real time    0.0713
 BZINTS: Fermi energy: -1.414419;138.000000 electrons
         Band energy:***********;  BLOECHL correction: -0.069578
       DOS:  cpu time    0.0031: real time    0.0031
    --------------------------------------------
      LOOP:  cpu time    1.6191: real time    1.6446

 eigenvalue-minimisations  :   510
 total energy-change (2. order) :-0.2838844E+02  (-0.2120173E+02)
 number of electron     138.0000000 magnetization 
 augmentation part      138.0000000 magnetization 

 DIPCOR: dipole corrections for dipol
 direction  3 min pos   355,
 dipolmoment           0.000000      0.000000     -0.000395 electrons x Angstroem
 Tr[quadrupol]     -1866.221667

 energy correction for charged system         0.000000 eV
 dipol+quadrupol energy correction           -0.000000 eV
 added-field ion interaction          0.004229 eV  (added to PSCEN)


 Free energy of the ion-electron system (eV)
  ---------------------------------------------------
  alpha Z        PSCENC =        63.16529241
  Ewald energy   TEWEN  =     13025.98869463
  -Hartree energ DENC   =    -16252.68837123
  -exchange      EXHF   =         0.00000000
  -V(xc)+E(xc)   XCENC  =     -2051.06237104
  PAW double counting   =      5135.15659847    -2719.01140655
  entropy T*S    EENTRO =         0.00000000
  eigenvalues    EBANDS =     -1099.53398783
  atomic energy  EATOM  =      3827.98814510
  Solvation  Ediel_sol  =         0.00000000
  ---------------------------------------------------
  free energy    TOTEN  =       -69.99740604 eV

  energy without entropy =      -69.99740604  energy(sigma->0) =      -69.99740604


--------------------------------------------------------------------------------------------------------




--------------------------------------- Iteration      1(   8)  ---------------------------------------


    EDDIAG:  cpu time    0.4856: real time    0.5106
  RMM-DIIS:  cpu time    1.0564: real time    1.0571
    ORTHCH:  cpu time    0.0709: real time    0.0709
 BZINTS: Fermi energy: -1.457279;138.000000 electrons
         Band energy:***********;  BLOECHL correction: -0.075702
       DOS:  cpu time    0.0031: real time    0.0031
    --------------------------------------------
      LOOP:  cpu time    1.6161: real time    1.6416

 eigenvalue-minimisations  :   510
 total energy-change (2. order) :-0.8098278E+01  (-0.6458193E+01)
 number of electron     138.0000000 magnetization 
 augmentation part      138.0000000 magnetization 

 DIPCOR: dipole corrections for dipol
 direction  3 min pos   355,
 dipolmoment           0.000000      0.000000     -0.000395 electrons x Angstroem
 Tr[quadrupol]     -1866.221667

 energy correction for charged system         0.000000 eV
 dipol+quadrupol energy correction           -0.000000 eV
 added-field ion interaction          0.004229 eV  (added to PSCEN)


 Free energy of the ion-electron system (eV)
  ---------------------------------------------------
  alpha Z        PSCENC =        63.16529241
  Ewald energy   TEWEN  =     13025.98869463
  -Hartree energ DENC   =    -16252.68837123
  -exchange      EXHF   =         0.00000000
  -V(xc)+E(xc)   XCENC  =     -2051.06237104
  PAW double counting   =      5135.15659847    -2719.01140655
  entropy T*S    EENTRO =         0.00000000
  eigenvalues    EBANDS =     -1107.63226560
  atomic energy  EATOM  =      3827.98814510
  Solvation  Ediel_sol  =         0.00000000
  ---------------------------------------------------
  free energy    TOTEN  =       -78.09568381 eV

  energy without entropy =      -78.09568381  energy(sigma->0) =      -78.09568381


--------------------------------------------------------------------------------------------------------




--------------------------------------- Iteration      1(   9)  ---------------------------------------


    EDDIAG:  cpu time    0.4848: real time    0.5116
  RMM-DIIS:  cpu time    2.8499: real time    2.8570
    ORTHCH:  cpu time    0.0707: real time    0.0707
 BZINTS: Fermi energy: -1.495559;138.000000 electrons
         Band energy:***********;  BLOECHL correction: -0.071864
       DOS:  cpu time    0.0032: real time    0.0032
    --------------------------------------------
      LOOP:  cpu time    3.4087: real time    3.4425

 eigenvalue-minimisations  :  1473
 total energy-change (2. order) :-0.2429604E+01  (-0.2290898E+01)
 number of electron     138.0000000 magnetization 
 augmentation part      138.0000000 magnetization 

 DIPCOR: dipole corrections for dipol
 direction  3 min pos   355,
 dipolmoment           0.000000      0.000000     -0.000395 electrons x Angstroem
 Tr[quadrupol]     -1866.221667

 energy correction for charged system         0.000000 eV
 dipol+quadrupol energy correction           -0.000000 eV
 added-field ion interaction          0.004229 eV  (added to PSCEN)


 Free energy of the ion-electron system (eV)
  ---------------------------------------------------
  alpha Z        PSCENC =        63.16529241
  Ewald energy   TEWEN  =     13025.98869463
  -Hartree energ DENC   =    -16252.68837123
  -exchange      EXHF   =         0.00000000
  -V(xc)+E(xc)   XCENC  =     -2051.06237104
  PAW double counting   =      5135.15659847    -2719.01140655
  entropy T*S    EENTRO =         0.00000000
  eigenvalues    EBANDS =     -1110.06186998
  atomic energy  EATOM  =      3827.98814510
  Solvation  Ediel_sol  =         0.00000000
  ---------------------------------------------------
  free energy    TOTEN  =       -80.52528819 eV

  energy without entropy =      -80.52528819  energy(sigma->0) =      -80.52528819


--------------------------------------------------------------------------------------------------------




--------------------------------------- Iteration      1(  10)  ---------------------------------------


    EDDIAG:  cpu time    0.4817: real time    0.5082
  RMM-DIIS:  cpu time    3.1512: real time    3.1525
    ORTHCH:  cpu time    0.0712: real time    0.0712
 BZINTS: Fermi energy: -1.500978;138.000000 electrons
         Band energy:***********;  BLOECHL correction: -0.067041
       DOS:  cpu time    0.0030: real time    0.0030
    --------------------------------------------
      LOOP:  cpu time    3.7071: real time    3.7349

 eigenvalue-minimisations  :  1749
 total energy-change (2. order) :-0.2855241E+00  (-0.3036349E+00)
 number of electron     138.0000000 magnetization 
 augmentation part      138.0000000 magnetization 

 DIPCOR: dipole corrections for dipol
 direction  3 min pos   355,
 dipolmoment           0.000000      0.000000     -0.000395 electrons x Angstroem
 Tr[quadrupol]     -1866.221667

 energy correction for charged system         0.000000 eV
 dipol+quadrupol energy correction           -0.000000 eV
 added-field ion interaction          0.004229 eV  (added to PSCEN)


 Free energy of the ion-electron system (eV)
  ---------------------------------------------------
  alpha Z        PSCENC =        63.16529241
  Ewald energy   TEWEN  =     13025.98869463
  -Hartree energ DENC   =    -16252.68837123
  -exchange      EXHF   =         0.00000000
  -V(xc)+E(xc)   XCENC  =     -2051.06237104
  PAW double counting   =      5135.15659847    -2719.01140655
  entropy T*S    EENTRO =         0.00000000
  eigenvalues    EBANDS =     -1110.34739406
  atomic energy  EATOM  =      3827.98814510
  Solvation  Ediel_sol  =         0.00000000
  ---------------------------------------------------
  free energy    TOTEN  =       -80.81081227 eV

  energy without entropy =      -80.81081227  energy(sigma->0) =      -80.81081227


--------------------------------------------------------------------------------------------------------




--------------------------------------- Iteration      1(  11)  ---------------------------------------


    EDDIAG:  cpu time    0.4874: real time    0.5079
  RMM-DIIS:  cpu time    3.1357: real time    3.1381
    ORTHCH:  cpu time    0.0713: real time    0.0714
 BZINTS: Fermi energy: -1.501611;138.000000 electrons
         Band energy:***********;  BLOECHL correction: -0.066634
       DOS:  cpu time    0.0031: real time    0.0031
    --------------------------------------------
      LOOP:  cpu time    3.6975: real time    3.7204

 eigenvalue-minimisations  :  1721
 total energy-change (2. order) : 0.6767775E-03  (-0.1578433E-01)
 number of electron     138.0000000 magnetization 
 augmentation part      138.0000000 magnetization 

 DIPCOR: dipole corrections for dipol
 direction  3 min pos   355,
 dipolmoment           0.000000      0.000000     -0.000395 electrons x Angstroem
 Tr[quadrupol]     -1866.221667

 energy correction for charged system         0.000000 eV
 dipol+quadrupol energy correction           -0.000000 eV
 added-field ion interaction          0.004229 eV  (added to PSCEN)


 Free energy of the ion-electron system (eV)
  ---------------------------------------------------
  alpha Z        PSCENC =        63.16529241
  Ewald energy   TEWEN  =     13025.98869463
  -Hartree energ DENC   =    -16252.68837123
  -exchange      EXHF   =         0.00000000
  -V(xc)+E(xc)   XCENC  =     -2051.06237104
  PAW double counting   =      5135.15659847    -2719.01140655
  entropy T*S    EENTRO =         0.00000000
  eigenvalues    EBANDS =     -1110.34671728
  atomic energy  EATOM  =      3827.98814510
  Solvation  Ediel_sol  =         0.00000000
  ---------------------------------------------------
  free energy    TOTEN  =       -80.81013550 eV

  energy without entropy =      -80.81013550  energy(sigma->0) =      -80.81013550


--------------------------------------------------------------------------------------------------------




--------------------------------------- Iteration      1(  12)  ---------------------------------------


    EDDIAG:  cpu time    0.4851: real time    0.5095
  RMM-DIIS:  cpu time    3.2559: real time    3.2599
    ORTHCH:  cpu time    0.0716: real time    0.0717
 BZINTS: Fermi energy: -1.501693;138.000000 electrons
         Band energy:***********;  BLOECHL correction: -0.066597
       DOS:  cpu time    0.0028: real time    0.0028
    CHARGE:  cpu time    0.1284: real time    0.1285
    MIXING:  cpu time    0.0044: real time    0.0044
    --------------------------------------------
      LOOP:  cpu time    3.9482: real time    3.9767

 eigenvalue-minimisations  :  1794
 total energy-change (2. order) :-0.2208969E-02  (-0.3126710E-02)
 number of electron     138.0000009 magnetization 
 augmentation part        5.2766241 magnetization 

 DIPCOR: dipole corrections for dipol
 direction  3 min pos   355,
 dipolmoment           0.000000      0.000000     -0.000395 electrons x Angstroem
 Tr[quadrupol]     -1866.221667

 energy correction for charged system         0.000000 eV
 dipol+quadrupol energy correction           -0.000000 eV
 added-field ion interaction          0.004229 eV  (added to PSCEN)


 Broyden mixing:
  rms(total) = 0.20273E+01    rms(broyden)= 0.20262E+01
  rms(prec ) = 0.21208E+01
  weight for this iteration     100.00

 Free energy of the ion-electron system (eV)
  ---------------------------------------------------
  alpha Z        PSCENC =        63.16529241
  Ewald energy   TEWEN  =     13025.98869463
  -Hartree energ DENC   =    -16252.68837123
  -exchange      EXHF   =         0.00000000
  -V(xc)+E(xc)   XCENC  =     -2051.06237104
  PAW double counting   =      5135.15659847    -2719.01140655
  entropy T*S    EENTRO =         0.00000000
  eigenvalues    EBANDS =     -1110.34892625
  atomic energy  EATOM  =      3827.98814510
  Solvation  Ediel_sol  =         0.00000000
  ---------------------------------------------------
  free energy    TOTEN  =       -80.81234446 eV

  energy without entropy =      -80.81234446  energy(sigma->0) =      -80.81234446


--------------------------------------------------------------------------------------------------------




--------------------------------------- Iteration      1(  13)  ---------------------------------------


    POTLOK:  cpu time    4.9331: real time    4.9563
    SETDIJ:  cpu time    0.1346: real time    0.1352
    EDDIAG:  cpu time    0.4761: real time    0.4765
  RMM-DIIS:  cpu time    2.5663: real time    2.5693
    ORTHCH:  cpu time    0.0720: real time    0.0720
 BZINTS: Fermi energy: -1.153546;138.000000 electrons
         Band energy:-919.950365;  BLOECHL correction: -0.081155
       DOS:  cpu time    0.0030: real time    0.0030
    CHARGE:  cpu time    0.1259: real time    0.1259
    MIXING:  cpu time    0.0044: real time    0.0045
    --------------------------------------------
      LOOP:  cpu time    8.3153: real time    8.3427

 eigenvalue-minimisations  :  1401
 total energy-change (2. order) : 0.9925649E+01  (-0.6285010E+01)
 number of electron     138.0000007 magnetization 
 augmentation part        4.4802322 magnetization 

 DIPCOR: dipole corrections for dipol
 direction  3 min pos   359,
 dipolmoment           0.000000      0.000000      0.587965 electrons x Angstroem
 Tr[quadrupol]     -1877.704068

 energy correction for charged system         0.000000 eV
 dipol+quadrupol energy correction           -0.012123 eV
 added-field ion interaction         -4.802488 eV  (added to PSCEN)


 Broyden mixing:
  rms(total) = 0.79483E+00    rms(broyden)= 0.79431E+00
  rms(prec ) = 0.10469E+01
  weight for this iteration     100.00

 eigenvalues of (default mixing * dielectric matrix)
  average eigenvalue GAMMA=   0.9421
  0.9421

 Free energy of the ion-electron system (eV)
  ---------------------------------------------------
  alpha Z        PSCENC =        58.34645165
  Ewald energy   TEWEN  =     13025.98869463
  -Hartree energ DENC   =    -16435.74953770
  -exchange      EXHF   =         0.00000000
  -V(xc)+E(xc)   XCENC  =     -2041.04859299
  PAW double counting   =      5560.14462357    -3146.60611484
  entropy T*S    EENTRO =         0.00000000
  eigenvalues    EBANDS =      -919.95036474
  atomic energy  EATOM  =      3827.98814510
  Solvation  Ediel_sol  =         0.00000000
  ---------------------------------------------------
  free energy    TOTEN  =       -70.88669533 eV

  energy without entropy =      -70.88669533  energy(sigma->0) =      -70.88669533


--------------------------------------------------------------------------------------------------------




--------------------------------------- Iteration      1(  14)  ---------------------------------------


    POTLOK:  cpu time    4.9184: real time    4.9451
    SETDIJ:  cpu time    0.1346: real time    0.1346
    EDDIAG:  cpu time    0.4722: real time    0.4734
  RMM-DIIS:  cpu time    2.8821: real time    2.8833
    ORTHCH:  cpu time    0.0708: real time    0.0708
 BZINTS: Fermi energy: -0.926624;138.000000 electrons
         Band energy:***********;  BLOECHL correction: -0.000909
       DOS:  cpu time    0.0029: real time    0.0029
    CHARGE:  cpu time    0.1248: real time    0.1249
    MIXING:  cpu time    0.0035: real time    0.0035
    --------------------------------------------
      LOOP:  cpu time    8.6094: real time    8.6385

 eigenvalue-minimisations  :  1595
 total energy-change (2. order) :-0.2793545E+02  (-0.1594992E+01)
 number of electron     138.0000008 magnetization 
 augmentation part        4.4660616 magnetization 

 DIPCOR: dipole corrections for dipol
 direction  3 min pos   374,
 dipolmoment           0.000000      0.000000     -2.150173 electrons x Angstroem
 Tr[quadrupol]     -1863.204671

 energy correction for charged system         0.000000 eV
 dipol+quadrupol energy correction           -0.162131 eV
 added-field ion interaction         -2.806784 eV  (added to PSCEN)


 Broyden mixing:
  rms(total) = 0.11044E+01    rms(broyden)= 0.11043E+01
  rms(prec ) = 0.32763E+01
  weight for this iteration     100.00

 eigenvalues of (default mixing * dielectric matrix)
  average eigenvalue GAMMA=   0.7171
  0.9620  0.4723

 Free energy of the ion-electron system (eV)
  ---------------------------------------------------
  alpha Z        PSCENC =        60.19214857
  Ewald energy   TEWEN  =     13025.98869463
  -Hartree energ DENC   =    -16378.74581200
  -exchange      EXHF   =         0.00000000
  -V(xc)+E(xc)   XCENC  =     -2039.14895629
  PAW double counting   =      5712.07624391    -3298.55839135
  entropy T*S    EENTRO =         0.00000000
  eigenvalues    EBANDS =     -1008.61422273
  atomic energy  EATOM  =      3827.98814510
  Solvation  Ediel_sol  =         0.00000000
  ---------------------------------------------------
  free energy    TOTEN  =       -98.82215016 eV

  energy without entropy =      -98.82215016  energy(sigma->0) =      -98.82215016


--------------------------------------------------------------------------------------------------------




--------------------------------------- Iteration      1(  15)  ---------------------------------------


    POTLOK:  cpu time    5.0275: real time    5.0533
    SETDIJ:  cpu time    0.1345: real time    0.1345
    EDDIAG:  cpu time    0.4752: real time    0.4757
  RMM-DIIS:  cpu time    2.6992: real time    2.7009
    ORTHCH:  cpu time    0.0707: real time    0.0707
 BZINTS: Fermi energy: -1.213304;138.000000 electrons
         Band energy:-919.469747;  BLOECHL correction: -0.090086
       DOS:  cpu time    0.0031: real time    0.0031
    CHARGE:  cpu time    0.1281: real time    0.1281
    MIXING:  cpu time    0.0036: real time    0.0036
    --------------------------------------------
      LOOP:  cpu time    8.5419: real time    8.5699

 eigenvalue-minimisations  :  1457
 total energy-change (2. order) : 0.2958265E+02  (-0.3667299E+00)
 number of electron     138.0000007 magnetization 
 augmentation part        4.3925201 magnetization 

 DIPCOR: dipole corrections for dipol
 direction  3 min pos   384,
 dipolmoment           0.000000      0.000000      0.072519 electrons x Angstroem
 Tr[quadrupol]     -1875.352143

 energy correction for charged system         0.000000 eV
 dipol+quadrupol energy correction           -0.000184 eV
 added-field ion interaction          0.552667 eV  (added to PSCEN)


 Broyden mixing:
  rms(total) = 0.49449E+00    rms(broyden)= 0.49446E+00
  rms(prec ) = 0.54367E+00
  weight for this iteration     100.00

 eigenvalues of (default mixing * dielectric matrix)
  average eigenvalue GAMMA=   1.0999
  1.9747  1.1753  0.1497

 Free energy of the ion-electron system (eV)
  ---------------------------------------------------
  alpha Z        PSCENC =        63.71354621
  Ewald energy   TEWEN  =     13025.98869463
  -Hartree energ DENC   =    -16442.35121308
  -exchange      EXHF   =         0.00000000
  -V(xc)+E(xc)   XCENC  =     -2038.63597164
  PAW double counting   =      5753.02611724    -3339.49906883
  entropy T*S    EENTRO =         0.00000000
  eigenvalues    EBANDS =      -919.46974709
  atomic energy  EATOM  =      3827.98814510
  Solvation  Ediel_sol  =         0.00000000
  ---------------------------------------------------
  free energy    TOTEN  =       -69.23949746 eV

  energy without entropy =      -69.23949746  energy(sigma->0) =      -69.23949746


--------------------------------------------------------------------------------------------------------




--------------------------------------- Iteration      1(  16)  ---------------------------------------


    POTLOK:  cpu time    4.9534: real time    4.9764
    SETDIJ:  cpu time    0.1543: real time    0.1543
    EDDIAG:  cpu time    0.5035: real time    0.5041
  RMM-DIIS:  cpu time    2.9353: real time    2.9366
    ORTHCH:  cpu time    0.0710: real time    0.0710
 BZINTS: Fermi energy: -0.926079;138.000000 electrons
         Band energy:-898.209753;  BLOECHL correction: -0.072183
       DOS:  cpu time    0.0027: real time    0.0027
    CHARGE:  cpu time    0.1279: real time    0.1280
    MIXING:  cpu time    0.0058: real time    0.0058
    --------------------------------------------
      LOOP:  cpu time    8.7539: real time    8.7788

 eigenvalue-minimisations  :  1600
 total energy-change (2. order) : 0.2724184E-01  (-0.1437478E+00)
 number of electron     138.0000007 magnetization 
 augmentation part        4.4428873 magnetization 

 DIPCOR: dipole corrections for dipol
 direction  3 min pos   367,
 dipolmoment           0.000000      0.000000      0.104406 electrons x Angstroem
 Tr[quadrupol]     -1880.915128

 energy correction for charged system         0.000000 eV
 dipol+quadrupol energy correction           -0.000382 eV
 added-field ion interaction         -0.325278 eV  (added to PSCEN)


 Broyden mixing:
  rms(total) = 0.25806E+00    rms(broyden)= 0.25805E+00
  rms(prec ) = 0.40868E+00
  weight for this iteration     100.00

 eigenvalues of (default mixing * dielectric matrix)
  average eigenvalue GAMMA=   1.0457
  2.3900  0.1541  0.6226  1.0161

 Free energy of the ion-electron system (eV)
  ---------------------------------------------------
  alpha Z        PSCENC =        62.83540249
  Ewald energy   TEWEN  =     13025.98869463
  -Hartree energ DENC   =    -16464.11022473
  -exchange      EXHF   =         0.00000000
  -V(xc)+E(xc)   XCENC  =     -2037.39248420
  PAW double counting   =      5859.82039867    -3446.13243418
  entropy T*S    EENTRO =         0.00000000
  eigenvalues    EBANDS =      -898.20975340
  atomic energy  EATOM  =      3827.98814510
  Solvation  Ediel_sol  =         0.00000000
  ---------------------------------------------------
  free energy    TOTEN  =       -69.21225562 eV

  energy without entropy =      -69.21225562  energy(sigma->0) =      -69.21225562


--------------------------------------------------------------------------------------------------------




--------------------------------------- Iteration      1(  17)  ---------------------------------------


    POTLOK:  cpu time    5.2639: real time    5.2928
    SETDIJ:  cpu time    0.1344: real time    0.1345
    EDDIAG:  cpu time    0.4797: real time    0.4804
  RMM-DIIS:  cpu time    2.5227: real time    2.5236
    ORTHCH:  cpu time    0.0713: real time    0.0714
 BZINTS: Fermi energy: -0.880405;138.000000 electrons
         Band energy:-892.262193;  BLOECHL correction: -0.092245
       DOS:  cpu time    0.0031: real time    0.0031
    CHARGE:  cpu time    0.1238: real time    0.1239
    MIXING:  cpu time    0.0040: real time    0.0040
    --------------------------------------------
      LOOP:  cpu time    8.6030: real time    8.6337

 eigenvalue-minimisations  :  1366
 total energy-change (2. order) : 0.3322700E+00  (-0.4524316E-01)
 number of electron     138.0000007 magnetization 
 augmentation part        4.4586023 magnetization 

 DIPCOR: dipole corrections for dipol
 direction  3 min pos   378,
 dipolmoment           0.000000      0.000000     -0.274840 electrons x Angstroem
 Tr[quadrupol]     -1879.635372

 energy correction for charged system         0.000000 eV
[...]
  0.013  -0.001  -0.001   0.054   0.001   0.000  -0.003  -0.000  -0.000   0.000   0.011  -0.000   0.000
  0.001   0.000  -0.002   0.001   0.076   0.000  -0.000  -0.004  -0.003  -0.000   0.000   0.004   0.000
  0.000   0.000  -0.004   0.000   0.000   0.000  -0.000  -0.000  -0.000  -0.000   0.000   0.000   0.000
 -0.003   0.000   0.000  -0.003  -0.000  -0.000   0.000   0.000   0.000  -0.000  -0.001   0.000  -0.000
 -0.000  -0.000   0.000  -0.000  -0.004  -0.000   0.000   0.000   0.000   0.000   0.000  -0.000  -0.000
  0.001   0.000   0.000  -0.000  -0.003  -0.000   0.000   0.000   0.003   0.000   0.000  -0.000  -0.000
  0.000   0.000   0.004   0.000  -0.000  -0.000  -0.000   0.000   0.000   0.002   0.000   0.000  -0.000
 -0.022   0.000  -0.000   0.011   0.000   0.000  -0.001   0.000   0.000   0.000   0.004  -0.000  -0.000
  0.000   0.000  -0.000  -0.000   0.004   0.000   0.000  -0.000  -0.000   0.000  -0.000   0.002   0.000
 -0.001  -0.000  -0.002   0.000   0.000   0.000  -0.000  -0.000  -0.000  -0.000  -0.000   0.000   0.003


------------------------ aborting loop because EDIFF is reached ----------------------------------------


    CHARGE:  cpu time    0.3594: real time    0.3594
    FORLOC:  cpu time    0.0393: real time    0.0393
    FORNL :  cpu time    0.6914: real time    0.6916
    STRESS:  cpu time    2.0728: real time    2.0736
    FORCOR:  cpu time    4.9464: real time    4.9511
    FORHAR:  cpu time    0.0748: real time    0.0748
    MIXING:  cpu time    0.0069: real time    0.0069
    OFIELD:  cpu time    0.0001: real time    0.0001

  FORCE on cell =-STRESS in cart. coord.  units (eV):
  Direction    XX          YY          ZZ          XY          YZ          ZX
  --------------------------------------------------------------------------------------
  Alpha Z    63.16106    63.16106    63.16106
  Ewald   14491.42645 14508.67355-15974.12109  -314.19630   111.86107   134.51586
  Hartree 15451.97780 15429.91328-14381.59029  -206.60997    25.62342    40.81509
  E(xc)    -446.09215  -445.63058  -444.60726    -0.43797     0.49036     0.53399
  Local  -30919.08656-30900.10270 29402.71423   507.33064  -106.62457  -140.45165
  n-local   119.36149   119.42204   112.43889    -0.41999     0.45792     0.76881
  augment    45.52329    44.53502    44.76932     0.81593    -1.99431    -2.36227
  Kinetic  1186.26057  1171.20651  1178.03925    13.76662   -29.10209   -33.01319
  Fock        0.00000     0.00000     0.00000     0.00000     0.00000     0.00000
  -------------------------------------------------------------------------------------
  Total      -7.46805    -8.82180     0.80412     0.24897     0.71179     0.80663
  in kB      -4.63773    -5.47842     0.49936     0.15461     0.44203     0.50093
  external pressure =       -3.21 kB  Pullay stress =        0.00 kB


 VOLUME and BASIS-vectors are now :
 -----------------------------------------------------------------------------
  energy-cutoff  :      520.00
  volume of cell :     2579.96
      direct lattice vectors                 reciprocal lattice vectors
     9.555752754  0.000000000  0.000000000     0.104649003  0.060419130  0.000000000
    -4.777876377  8.275524637  0.000000000     0.000000000  0.120838260  0.000000000
     0.000000000  0.000000000 32.625095367     0.000000000  0.000000000  0.030651251

  length of vectors
     9.555752754  9.555752754 32.625095367     0.120838260  0.120838260  0.030651251


 FORCES acting on ions
    electron-ion (+dipol)            ewald-force                    non-local-force                 convergence-correction
 -----------------------------------------------------------------------------------------------
   0.516E-01 -.479E-01 0.122E+03   -.114E-01 -.986E-02 -.122E+03   -.217E-01 0.422E-01 -.785E+00   0.667E-05 -.684E-05 -.795E-04
   0.394E+00 -.219E-01 0.566E+02   -.327E+00 -.770E-01 -.567E+02   -.554E-01 0.816E-01 0.788E-01   0.106E-04 -.460E-05 -.509E-03
   -.250E+00 0.259E+00 0.320E+01   0.409E+00 -.184E+00 -.371E+01   -.153E+00 -.852E-01 0.521E+00   -.801E-05 0.732E-05 -.431E-03
   -.362E-01 -.269E-01 0.122E+03   -.822E-02 0.100E-03 -.122E+03   0.468E-02 0.103E-01 -.872E+00   -.147E-04 -.325E-05 -.855E-04
   0.809E-01 -.410E-01 0.567E+02   -.695E-01 0.277E-01 -.568E+02   -.725E-02 0.124E-01 0.100E+00   -.884E-05 -.599E-05 -.505E-03
   -.269E+01 -.289E+01 -.804E+01   0.270E+01 0.285E+01 0.776E+01   -.291E-01 0.280E-01 0.307E+00   0.932E-05 0.828E-05 -.532E-03
   0.191E-01 0.586E-01 0.122E+03   -.134E-01 -.922E-02 -.122E+03   0.110E-01 -.233E-01 -.875E+00   -.455E-05 0.278E-05 -.903E-04
   0.185E+00 0.365E+00 0.565E+02   -.194E+00 -.276E+00 -.566E+02   -.319E-03 -.709E-01 0.154E+00   -.709E-05 0.765E-05 -.516E-03
   -.224E+01 0.882E+00 -.137E+02   0.243E+01 -.680E+00 0.130E+02   -.197E+00 -.170E+00 0.681E+00   0.480E-05 -.827E-05 -.520E-03
   -.424E-01 -.344E-01 0.122E+03   0.512E-02 0.230E-02 -.122E+03   0.236E-01 0.119E-01 -.887E+00   -.858E-05 -.369E-05 -.913E-04
   -.118E+00 -.723E-01 0.569E+02   0.891E-01 0.139E-01 -.570E+02   0.177E-01 0.433E-01 0.129E+00   -.183E-04 0.804E-06 -.495E-03
   -.123E+01 0.559E+00 -.429E+01   0.978E+00 -.638E+00 0.385E+01   0.204E+00 0.713E-01 0.442E+00   0.996E-05 -.657E-05 -.543E-03
   0.161E-01 0.764E-02 0.122E+03   0.739E-02 0.141E-01 -.122E+03   -.215E-01 -.223E-01 -.851E+00   0.613E-05 0.680E-05 -.842E-04
   0.855E-01 -.174E+00 0.571E+02   -.749E-01 0.123E+00 -.571E+02   -.418E-02 0.370E-01 0.768E-02   0.608E-05 0.185E-05 -.533E-03
   0.444E+01 0.460E+01 -.125E+02   -.464E+01 -.515E+01 0.118E+02   0.194E+00 0.505E+00 0.714E+00   -.961E-05 0.301E-05 -.515E-03
   -.564E-01 0.883E-02 0.122E+03   0.119E-01 -.221E-02 -.122E+03   0.296E-01 -.174E-02 -.777E+00   -.204E-06 -.454E-05 -.899E-04
   -.153E+00 0.126E+00 0.569E+02   0.109E+00 -.667E-01 -.569E+02   0.306E-01 -.393E-01 -.183E-01   -.122E-05 -.104E-04 -.531E-03
   0.174E+01 0.182E+01 -.234E+01   -.196E+01 -.179E+01 0.194E+01   0.168E+00 -.883E-02 0.367E+00   -.511E-05 0.386E-05 -.418E-03
   -.168E-01 0.640E-01 0.122E+03   0.621E-02 -.355E-02 -.122E+03   0.580E-02 -.115E-01 -.877E+00   0.281E-05 0.146E-04 -.857E-04
   -.282E+00 0.154E+00 0.566E+02   0.248E+00 -.135E+00 -.568E+02   0.297E-01 -.334E-01 0.162E+00   0.926E-05 0.164E-04 -.506E-03
   0.914E+00 0.239E+01 -.137E+02   -.807E+00 -.244E+01 0.135E+02   -.100E+00 0.623E-01 0.218E+00   -.696E-05 -.122E-04 -.512E-03
   0.876E-01 -.525E-01 0.122E+03   0.836E-03 0.113E-01 -.122E+03   -.467E-01 0.157E-01 -.815E+00   0.840E-05 0.399E-05 -.960E-04
   -.128E+00 -.236E+00 0.567E+02   0.133E+00 0.247E+00 -.567E+02   -.110E-01 0.381E-02 0.103E+00   0.300E-05 0.450E-05 -.521E-03
   -.633E+01 0.597E+01 0.116E+02   0.654E+01 -.632E+01 -.116E+02   -.199E+00 0.323E+00 0.117E+00   -.368E-05 0.359E-05 -.449E-03
   -.525E-01 -.202E-01 0.122E+03   0.144E-02 -.271E-02 -.121E+03   0.446E-01 0.246E-01 -.798E+00   0.399E-05 -.950E-05 -.867E-04
   -.921E-01 -.142E+00 0.564E+02   0.861E-01 0.146E+00 -.564E+02   0.199E-01 -.140E-02 0.156E-01   0.715E-05 -.101E-04 -.553E-03
   0.470E+01 -.145E+02 0.133E+02   -.432E+01 0.146E+02 -.117E+02   -.440E+00 -.955E-01 -.153E+01   -.626E-06 -.193E-05 -.456E-03
   0.483E-01 0.414E-01 0.899E+02   -.419E-01 -.332E-01 -.899E+02   -.627E-02 -.388E-01 -.202E-01   0.663E-05 0.226E-05 -.387E-03
   0.365E+00 0.575E+00 0.238E+02   -.398E+00 -.486E+00 -.240E+02   0.269E-01 -.113E+00 0.158E+00   -.693E-05 -.436E-05 -.683E-03
   0.341E-01 0.123E-01 0.899E+02   -.677E-02 -.985E-02 -.899E+02   -.255E-02 0.657E-02 -.134E-01   -.297E-05 -.400E-05 -.388E-03
   -.292E+00 -.887E-01 0.234E+02   0.267E+00 0.113E+00 -.235E+02   0.245E-01 -.764E-02 0.127E+00   -.164E-04 -.773E-05 -.673E-03
   0.432E-01 0.478E-01 0.899E+02   -.936E-01 -.508E-01 -.899E+02   0.866E-02 0.331E-02 -.776E-01   -.160E-04 -.527E-05 -.400E-03
   0.608E+00 0.159E-01 0.248E+02   -.582E+00 -.744E-01 -.248E+02   -.469E-01 0.563E-01 -.222E-01   0.530E-05 0.143E-05 -.697E-03
   -.174E+00 -.943E-01 0.899E+02   0.115E+00 0.117E+00 -.899E+02   0.611E-01 -.510E-02 -.203E-01   -.166E-04 0.162E-04 -.382E-03
   -.386E-01 0.368E+00 0.250E+02   -.320E-02 -.377E+00 -.252E+02   0.447E-01 0.150E-01 0.190E+00   -.557E-05 -.157E-04 -.686E-03
   -.109E+00 -.962E-01 0.898E+02   0.101E+00 0.104E+00 -.897E+02   0.122E-01 0.857E-02 -.707E-01   0.145E-04 -.775E-05 -.378E-03
   0.947E+00 -.791E+00 0.244E+02   -.849E+00 0.681E+00 -.246E+02   -.984E-01 0.111E+00 0.207E+00   0.291E-05 -.924E-05 -.678E-03
   -.905E-01 0.170E-01 0.900E+02   0.906E-01 -.495E-01 -.899E+02   -.869E-03 -.140E-01 -.395E-01   0.710E-05 -.569E-05 -.392E-03
   -.280E+00 0.601E+00 0.237E+02   0.344E+00 -.594E+00 -.239E+02   -.740E-01 -.361E-01 0.198E+00   -.691E-05 0.194E-04 -.670E-03
   0.101E+00 -.365E-01 0.898E+02   -.737E-01 0.430E-01 -.898E+02   -.276E-01 0.662E-02 -.690E-01   0.107E-04 0.146E-05 -.404E-03
   -.312E+00 0.957E-01 0.251E+02   0.384E+00 -.117E+00 -.251E+02   -.880E-01 0.303E-01 0.265E-01   0.139E-04 -.516E-05 -.700E-03
   0.102E+00 0.399E-01 0.898E+02   -.885E-01 -.365E-01 -.897E+02   -.274E-01 -.757E-02 0.595E-01   -.110E-04 0.141E-04 -.378E-03
   -.639E+00 -.455E+00 0.235E+02   0.656E+00 0.494E+00 -.236E+02   -.300E-01 -.613E-01 0.133E+00   0.133E-04 0.830E-05 -.671E-03
   0.441E-01 0.106E+00 0.898E+02   0.520E-02 -.112E+00 -.898E+02   -.360E-02 -.116E-01 0.359E-02   0.758E-05 -.115E-04 -.386E-03
   -.297E+00 -.356E+00 0.224E+02   0.233E+00 0.410E+00 -.227E+02   0.803E-01 -.627E-01 0.236E+00   0.114E-05 0.126E-04 -.676E-03
   0.169E+02 0.412E+02 -.264E+03   -.275E+02 -.652E+02 0.239E+03   0.106E+02 0.240E+02 0.256E+02   -.530E-04 -.878E-04 -.465E-03
   0.612E+01 0.156E+02 -.417E+03   -.166E+02 -.410E+02 0.449E+03   0.105E+02 0.254E+02 -.321E+02   -.884E-04 -.203E-03 0.251E-03
   0.989E+01 0.794E+01 -.419E+03   -.177E+02 -.323E+02 0.454E+03   0.783E+01 0.244E+02 -.349E+02   -.483E-04 -.169E-03 0.236E-03
   0.186E+02 0.620E+02 -.259E+03   -.403E+02 -.813E+02 0.244E+03   0.218E+02 0.193E+02 0.153E+02   -.906E-04 -.947E-04 -.647E-03
   0.297E+02 -.311E+02 -.249E+03   -.304E+02 0.104E+02 0.230E+03   0.741E+00 0.207E+02 0.193E+02   0.109E-03 -.180E-03 -.844E-03
   -.499E+01 0.611E+02 -.274E+03   -.947E+01 -.829E+02 0.247E+03   0.145E+02 0.218E+02 0.274E+02   -.130E-03 -.114E-03 -.599E-03
   0.362E+02 -.418E+02 -.875E+02   -.411E+02 0.471E+02 0.904E+02   0.490E+01 -.527E+01 -.295E+01   -.389E-05 -.137E-04 -.149E-04
   -.559E+02 0.146E+00 -.102E+03   0.629E+02 -.400E+00 0.106E+03   -.700E+01 0.258E+00 -.409E+01   -.225E-04 -.115E-04 -.300E-06
   -.388E+02 -.676E+02 -.642E+02   0.428E+02 0.746E+02 0.643E+02   -.404E+01 -.703E+01 -.516E-01   -.535E-04 -.103E-03 0.390E-04
   0.184E+02 0.111E+02 0.350E+02   -.203E+02 -.122E+02 -.419E+02   0.192E+01 0.111E+01 0.695E+01   0.279E-04 -.191E-05 0.414E-04
   -.342E+02 -.773E+02 -.538E+02   0.374E+02 0.847E+02 0.532E+02   -.322E+01 -.742E+01 0.610E+00   -.457E-04 -.109E-03 0.347E-04
   0.194E+02 0.200E+02 0.314E+02   -.213E+02 -.219E+02 -.383E+02   0.191E+01 0.193E+01 0.682E+01   0.304E-04 0.162E-04 0.399E-04
   0.140E+02 -.290E+02 -.640E+02   -.159E+02 0.330E+02 0.646E+02   0.187E+01 -.392E+01 -.574E+00   0.542E-05 -.215E-04 -.827E-04
   -.591E+02 0.378E+01 -.102E+03   0.658E+02 -.437E+01 0.107E+03   -.673E+01 0.602E+00 -.453E+01   -.196E-04 -.771E-05 -.251E-04
   0.697E+01 -.569E+02 -.119E+03   -.715E+01 0.626E+02 0.125E+03   0.373E+00 -.569E+01 -.593E+01   0.840E-05 -.140E-04 -.249E-04
   0.539E+01 0.388E+01 -.137E+02   -.526E+01 -.389E+01 0.141E+02   -.215E+00 0.227E-01 -.586E+00   -.247E-05 0.141E-05 -.211E-03
   0.259E+02 -.446E+02 -.811E+02   -.297E+02 0.507E+02 0.835E+02   0.387E+01 -.618E+01 -.243E+01   -.836E-05 -.169E-04 -.255E-04
   -.657E+02 0.166E+02 -.112E+03   0.724E+02 -.181E+02 0.117E+03   -.655E+01 0.145E+01 -.485E+01   -.302E-04 -.504E-05 0.192E-05
 -----------------------------------------------------------------------------------------------
   -.523E+02 -.106E+03 -.494E+01   0.284E-13 0.107E-13 0.568E-13   0.523E+02 0.106E+03 0.496E+01   -.424E-03 -.114E-02 -.218E-01
 
 
 POSITION                                       TOTAL-FORCE (eV/Angst)
 -----------------------------------------------------------------------------------
      0.00000      0.00000      0.00000         0.018623     -0.015691      0.008345
      4.77317      8.26589      5.15542         0.012157     -0.017360      0.003333
     -0.00086      0.02637     10.78355         0.005943     -0.010183      0.001113
     -1.59263      2.75851      0.00000        -0.039749     -0.016548     -0.029552
     -1.58824      2.75217      5.13898         0.004226     -0.000980     -0.007242
      7.88759      2.73329     10.11173        -0.017432     -0.013994      0.020979
     -3.18525      5.51702      0.00000         0.016697      0.025999     -0.028986
      6.36584      5.50410      5.14239        -0.009041      0.018364      0.005267
     -3.18134      5.55339     10.23257        -0.007749      0.032356      0.007315
      3.18525      0.00000      0.00000        -0.013598     -0.020233     -0.023729
     -1.58918      8.26870      5.12395        -0.011107     -0.015132      0.002622
     -1.65217      8.24871     10.06422        -0.044816     -0.008670     -0.000360
      1.59263      2.75851      0.00000         0.002027     -0.000630     -0.035446
      1.59237      2.74567      5.13199         0.006436     -0.014173     -0.021052
      1.50956      2.70677     10.21287        -0.002470     -0.040382     -0.038611
     -0.00000      5.51702      0.00000        -0.014858      0.004813     -0.023694
     -0.00657      5.51381      5.15566        -0.013522      0.019717     -0.003412
     -0.14536      5.52696     10.82772        -0.055890      0.025182     -0.025164
      6.37050      0.00000      0.00000        -0.004751      0.048846     -0.035968
      1.60047      8.25841      5.13782        -0.003779     -0.014577     -0.001197
      1.58602      8.25078     10.22529         0.007305      0.018783      0.035980
      4.77788      2.75851      0.00000         0.041738     -0.025669     -0.019456
      4.77500      2.76084      5.18053        -0.005693      0.014561      0.008621
      4.80218      2.59199     10.60827         0.004446     -0.018645      0.033308
      3.18525      5.51702      0.00000        -0.006392      0.001689     -0.042013
      3.20710      5.51468      5.18223         0.013933      0.002732     -0.010480
      3.12459      5.50725     10.64015        -0.063688      0.004734      0.063460
      0.00000      1.83901      2.60418         0.000091     -0.030747      0.023505
      0.00170      1.80409      7.70298        -0.005971     -0.023196      0.002892
     -1.59263      4.59751      2.60418         0.024801      0.009008      0.027278
     -1.55787      4.61104      7.71065        -0.000703      0.017028      0.016133
     -3.18525      7.35602      2.60418        -0.041765      0.000264     -0.058937
     -3.20954      7.33108      7.64049        -0.020582     -0.002276      0.026333
      3.18525      1.83901      2.60418         0.001780      0.017465      0.041998
      3.18459      1.86295      7.70311         0.002944      0.005516     -0.005576
      1.59263      4.59751      2.60418         0.004650      0.015985      0.013933
      1.59982      4.60339      7.67571        -0.000477      0.000943     -0.018612
      0.00000      7.35602      2.60418        -0.000775     -0.046542      0.034361
      0.01765      7.30528      7.69434        -0.009920     -0.029264      0.001957
      6.37050      1.83901      2.60418         0.000243      0.013074     -0.023814
      6.34506      1.80218      7.65849        -0.016470      0.009423      0.001104
      4.77788      4.59751      2.60418        -0.013617     -0.004254      0.081270
      4.75126      4.54371      7.86308        -0.012770     -0.022131      0.004642
      3.18525      7.35602      2.60418         0.045761     -0.017283      0.042137
      3.22666      7.31512      7.82454         0.015487     -0.008676      0.016937
      9.44799      0.10430     12.91956        -0.005678     -0.002125      0.017170
     -1.96202      8.03282     13.44385         0.014243      0.003817      0.033985
      7.43206      2.03763     13.44116         0.022400     -0.006524      0.042345
      4.47173      2.75572     12.65787        -0.024555      0.020837      0.015205
      3.42569      5.00555     12.51288         0.014976     -0.000822      0.045067
     -0.38273      5.71682     12.94618         0.018716     -0.008856     -0.000178
      8.84292      0.78786     13.30931        -0.002406      0.010686     -0.007710
      0.73425      0.09470     13.42727         0.005709      0.004773     -0.006701
      3.30521      0.61083     13.43077         0.001311      0.004618     -0.007548
     -2.20899      7.90444     12.48308        -0.005870     -0.015284     -0.013776
      7.82057      2.93341     13.34451         0.006652     -0.002311      0.000460
      7.18521      1.80141     12.50100        -0.008516     -0.005363     -0.007984
      4.03620      3.74067     12.77212        -0.003351      0.045502     -0.015642
      5.28429      2.70190     13.20263        -0.020442      0.010172      0.004869
      3.38202      5.67510     13.21308         0.194815      0.030990      0.077259
      1.42009      4.44665     10.99311        -0.081852      0.006697     -0.200510
     -0.86423      6.52453     13.27596         0.019666     -0.006548     -0.006140
      0.38502      5.56707     13.53057         0.062480      0.020495     -0.041696
 -----------------------------------------------------------------------------------
    total drift:                               -0.001031      0.003510     -0.005521


--------------------------------------------------------------------------------------------------------



  FREE ENERGIE OF THE ION-ELECTRON SYSTEM (eV)
  ---------------------------------------------------
  free  energy   TOTEN  =       -68.83436818 eV

  energy  without entropy=      -68.83436818  energy(sigma->0) =      -68.83436818
 


--------------------------------------------------------------------------------------------------------


    POTLOK:  cpu time    5.0709: real time    5.0723


--------------------------------------------------------------------------------------------------------


 stress matrix after NEB project (eV)
     -7.46805      0.24897      0.80663
      0.24897     -8.82180      0.71179
      0.80663      0.71179      0.80412
  FORCES: max atom, RMS     0.216677    0.047496
  FORCE total and by dimension    0.376986    0.200510
  Stress total and by dimension   11.691069    8.821800
     LOOP+:  cpu time  215.6860: real time  217.2710
 vacuum level on the upper side and lower side of the slab         2.292         3.146
    4ORBIT:  cpu time    0.0000: real time    0.0000
 BZINTS: Fermi energy: -0.684826;138.000000 electrons
         Band energy:-866.364964;  BLOECHL correction: -0.093745

 total amount of memory used by VASP MPI-rank0    62231. kBytes
=======================================================================

   base      :      30000. kBytes
   nonlr-proj:       6328. kBytes
   fftplans  :       6459. kBytes
   grid      :      11407. kBytes
   one-center:         24. kBytes
   wavefun   :       8013. kBytes
 
  
  
 General timing and accounting informations for this job:
 ========================================================
  
                  Total CPU time used (sec):      260.630
                            User time (sec):      252.482
                          System time (sec):        8.147
                         Elapsed time (sec):      275.362
  
                   Maximum memory used (kb):      267232.
                   Average memory used (kb):           0.
  
                          Minor page faults:       211946
                          Major page faults:            0
                 Voluntary context switches:        68904
