 running on   72 total cores
 distrk:  each k-point on   72 cores,    1 groups
 distr:  one band on   24 cores,    3 groups
 using from now: INCAR     
 vasp.5.4.4.18Apr17-6-g9f103f2a35 (build Jun 08 2018 12:06:12) complex          
  
 POSCAR found type information on POSCAR  Mg O  H 
 POSCAR found :  3 types and      63 ions
 scaLAPACK will be used

 ----------------------------------------------------------------------------- 
|                                                                             |
|           W    W    AA    RRRRR   N    N  II  N    N   GGGG   !!!           |
|           W    W   A  A   R    R  NN   N  II  NN   N  G    G  !!!           |
|           W    W  A    A  R    R  N N  N  II  N N  N  G       !!!           |
|           W WW W  AAAAAA  RRRRR   N  N N  II  N  N N  G  GGG   !            |
|           WW  WW  A    A  R   R   N   NN  II  N   NN  G    G                |
|           W    W  A    A  R    R  N    N  II  N    N   GGGG   !!!           |
|                                                                             |
|      For optimal performance we recommend to set                            |
|        NCORE= 4 - approx SQRT( number of cores)                             |
|      NCORE specifies how many cores store one orbital (NPAR=cpu/NCORE).     |
|      This setting can  greatly improve the performance of VASP for DFT.     |
|      The default,   NCORE=1            might be grossly inefficient         |
|      on modern multi-core architectures or massively parallel machines.     |
|      Do your own testing !!!!                                               |
|      Unfortunately you need to use the default for GW and RPA calculations. |
|      (for HF NCORE is supported but not extensively tested yet)             |
|                                                                             |
 ----------------------------------------------------------------------------- 


 ----------------------------------------------------------------------------- 
|                                                                             |
|  ADVICE TO THIS USER RUNNING 'VASP/VAMP'   (HEAR YOUR MASTER'S VOICE ...):  |
|                                                                             |
|      You have switched on vdW-DFT.                                          |
|      This routine was written and supplied by Jiri Klimes.                  |
|      We recommed that you carefully read and cite the following             |
|      publication                                                            |
|      J. Klimes, D.R. Bowler, A. Michelides                                  |
|        J. Phys.: Cond Matt. 22 022201 (2010)                                |
|      J. Klimes, D.R. Bowler, A. Michelides                                  |
|        Phys. Rev. B. 83, 195131 (2011)                                      |
|      and references therein.                                                |
|                                                                             |
 ----------------------------------------------------------------------------- 


 ----------------------------------------------------------------------------- 
|                                                                             |
|  ADVICE TO THIS USER RUNNING 'VASP/VAMP'   (HEAR YOUR MASTER'S VOICE ...):  |
|                                                                             |
|      You enforced a specific xc-type in the INCAR file,                     |
|      a different type was found on the POTCAR file                          |
|          I HOPE YOU KNOW, WHAT YOU ARE  DOING                               |
|                                                                             |
 ----------------------------------------------------------------------------- 

 LDA part: xc-table for Pade appr. of Perdew
 POSCAR found type information on POSCAR  Mg O  H 
 POSCAR found :  3 types and      63 ions
 POSCAR, INCAR and KPOINTS ok, starting setup
 FFT: planning ...
 WAVECAR not read
 augmentation electrons   138.062830521849     
 soft         electrons  0.000000000000000E+000
 augmentation electrons   138.062830521849     
 soft         electrons  0.000000000000000E+000
 augmentation electrons   138.062830521849     
 soft         electrons  0.000000000000000E+000
 augmentation electrons   138.062830521849     
 soft         electrons  0.000000000000000E+000
 augmentation electrons   138.062830521849     
 soft         electrons  0.000000000000000E+000
 augmentation electrons   138.062830521849     
 soft         electrons  0.000000000000000E+000
 augmentation electrons   138.062830521849     
 soft         electrons  0.000000000000000E+000
 augmentation electrons   138.062830521849     
 soft         electrons  0.000000000000000E+000
 augmentation electrons   138.062830521849     
 soft         electrons  0.000000000000000E+000
 augmentation electrons   138.062830521849     
 soft         electrons  0.000000000000000E+000
 augmentation electrons   138.062830521849     
 soft         electrons  0.000000000000000E+000
 augmentation electrons   138.062830521849     
 soft         electrons  0.000000000000000E+000
 augmentation electrons   138.062830521849     
 soft         electrons  0.000000000000000E+000
 augmentation electrons   138.062830521849     
 soft         electrons  0.000000000000000E+000
 augmentation electrons   138.062830521849     
 soft         electrons  0.000000000000000E+000
 augmentation electrons   138.062830521849     
 soft         electrons  0.000000000000000E+000
 augmentation electrons   138.062830521849     
 soft         electrons  0.000000000000000E+000
 augmentation electrons   138.062830521849     
 augmentation electrons   138.062830521849     
 soft         electrons  0.000000000000000E+000
 augmentation electrons   138.062830521849     
 soft         electrons  0.000000000000000E+000
 augmentation electrons   138.062830521849     
 soft         electrons  0.000000000000000E+000
 augmentation electrons   138.062830521849     
 soft         electrons  0.000000000000000E+000
 augmentation electrons   138.062830521849     
 soft         electrons  0.000000000000000E+000
 augmentation electrons   138.062830521849     
 soft         electrons  0.000000000000000E+000
 augmentation electrons   138.062830521849     
 soft         electrons  0.000000000000000E+000
 augmentation electrons   138.062830521849     
 soft         electrons  0.000000000000000E+000
 augmentation electrons   138.062830521849     
 soft         electrons  0.000000000000000E+000
 augmentation electrons   138.062830521849     
 soft         electrons  0.000000000000000E+000
 augmentation electrons   138.062830521849     
 soft         electrons  0.000000000000000E+000
 augmentation electrons   138.062830521849     
 soft         electrons  0.000000000000000E+000
 augmentation electrons   138.062830521849     
 soft         electrons  0.000000000000000E+000
 augmentation electrons   138.062830521849     
 soft         electrons  0.000000000000000E+000
 augmentation electrons   138.062830521849     
 soft         electrons  0.000000000000000E+000
 augmentation electrons   138.062830521849     
 soft         electrons  0.000000000000000E+000
 augmentation electrons   138.062830521849     
 soft         electrons  0.000000000000000E+000
 augmentation electrons   138.062830521849     
 soft         electrons  0.000000000000000E+000
 augmentation electrons   138.062830521849     
 soft         electrons  0.000000000000000E+000
 augmentation electrons   138.062830521849     
 soft         electrons  0.000000000000000E+000
 augmentation electrons   138.062830521849     
 soft         electrons  0.000000000000000E+000
 augmentation electrons   138.062830521849     
 soft         electrons  0.000000000000000E+000
 augmentation electrons   138.062830521849     
 soft         electrons  0.000000000000000E+000
 augmentation electrons   138.062830521849     
 soft         electrons  0.000000000000000E+000
 augmentation electrons   138.062830521849     
 soft         electrons  0.000000000000000E+000
 augmentation electrons   138.062830521849     
 soft         electrons  0.000000000000000E+000
 augmentation electrons   138.062830521849     
 soft         electrons  0.000000000000000E+000
 augmentation electrons   138.062830521849     
 soft         electrons  0.000000000000000E+000
 augmentation electrons   138.062830521849     
 soft         electrons  0.000000000000000E+000
 augmentation electrons   138.062830521849     
 soft         electrons  0.000000000000000E+000
 augmentation electrons   138.062830521849     
 soft         electrons  0.000000000000000E+000
 augmentation electrons   138.062830521849     
 soft         electrons  0.000000000000000E+000
 soft         electrons  0.000000000000000E+000
 augmentation electrons   138.062830521849     
 soft         electrons  0.000000000000000E+000
 augmentation electrons   138.062830521849     
 soft         electrons  0.000000000000000E+000
 total        electrons   138.062830521849     
 augmentation electrons   138.062830521849     
 soft         electrons  0.000000000000000E+000
 augmentation electrons   138.062830521849     
 soft         electrons  0.000000000000000E+000
 total        electrons   138.062830521849     
 augmentation electrons   138.062830521849     
 soft         electrons  0.000000000000000E+000
 augmentation electrons   138.062830521849     
 soft         electrons  0.000000000000000E+000
 total        electrons   138.062830521849     
 augmentation electrons   138.062830521849     
 soft         electrons  0.000000000000000E+000
 augmentation electrons   138.062830521849     
 soft         electrons  0.000000000000000E+000
 total        electrons   138.062830521849     
 augmentation electrons   138.062830521849     
 soft         electrons  0.000000000000000E+000
 augmentation electrons   138.062830521849     
 soft         electrons  0.000000000000000E+000
 total        electrons   138.062830521849     
 augmentation electrons   138.062830521849     
 soft         electrons  0.000000000000000E+000
 augmentation electrons   138.062830521849     
 soft         electrons  0.000000000000000E+000
 total        electrons   138.062830521849     
 augmentation electrons   138.062830521849     
 soft         electrons  0.000000000000000E+000
 augmentation electrons   138.062830521849     
 soft         electrons  0.000000000000000E+000
 total        electrons   138.062830521849     
 augmentation electrons   138.062830521849     
 soft         electrons  0.000000000000000E+000
 augmentation electrons   138.062830521849     
 soft         electrons  0.000000000000000E+000
 total        electrons   138.062830521849     
 augmentation electrons   138.062830521849     
 soft         electrons  0.000000000000000E+000
 augmentation electrons   138.062830521849     
 soft         electrons  0.000000000000000E+000
 total        electrons   138.062830521849     
 augmentation electrons   138.062830521849     
 soft         electrons  0.000000000000000E+000
 augmentation electrons   138.062830521849     
 total        electrons   138.062830521849     
 augmentation electrons   138.062830521849     
 soft         electrons  0.000000000000000E+000
 soft         electrons  0.000000000000000E+000
 total        electrons   138.062830521849     
 augmentation electrons   138.062830521849     
 total        electrons   138.062830521849     
 total        electrons   138.062830521849     
 soft         electrons  0.000000000000000E+000
 total        electrons   138.062830521849     
 total        electrons   138.062830521849     
 total        electrons   138.062830521849     
 total        electrons   138.062830521849     
 total        electrons   138.062830521849     
 total        electrons   138.062830521849     
 total        electrons   138.062830521849     
 total        electrons   138.062830521849     
 total        electrons   138.062830521849     
 total        electrons   138.062830521849     
 total        electrons   138.062830521849     
 total        electrons   138.062830521849     
 total        electrons   138.062830521849     
 total        electrons   138.062830521849     
 total        electrons   138.062830521849     
 total        electrons   138.062830521849     
 total        electrons   138.062830521849     
 total        electrons   138.062830521849     
 total        electrons   138.062830521849     
 total        electrons   138.062830521849     
 total        electrons   138.062830521849     
 total        electrons   138.062830521849     
 total        electrons   138.062830521849     
 total        electrons   138.062830521849     
 total        electrons   138.062830521849     
 total        electrons   138.062830521849     
 total        electrons   138.062830521849     
 total        electrons   138.062830521849     
 total        electrons   138.062830521849     
 total        electrons   138.062830521849     
 total        electrons   138.062830521849     
 total        electrons   138.062830521849     
 total        electrons   138.062830521849     
 total        electrons   138.062830521849     
 total        electrons   138.062830521849     
 total        electrons   138.062830521849     
 total        electrons   138.062830521849     
 total        electrons   138.062830521849     
 total        electrons   138.062830521849     
 total        electrons   138.062830521849     
 total        electrons   138.062830521849     
 total        electrons   138.062830521849     
 total        electrons   138.062830521849     
 total        electrons   138.062830521849     
 total        electrons   138.062830521849     
 total        electrons   138.062830521849     
 total        electrons   138.062830521849     
 total        electrons   138.062830521849     
 total        electrons   138.062830521849     
 total        electrons   138.062830521849     
 total        electrons   138.062830521849     
 total        electrons   138.062830521849     
 total        electrons   138.062830521849     
 total        electrons   138.062830521849     
 total        electrons   138.062830521849     
 total        electrons   138.062830521849     
 total        electrons   138.062830521849     
 total        electrons   138.062830521849     
 total        electrons   138.062830521849     
 augmentation electrons   481.957772905378     
 soft         electrons  0.000000000000000E+000
 augmentation electrons   481.957772905378     
 augmentation electrons   481.957772905378     
 soft         electrons  0.000000000000000E+000
 augmentation electrons   481.957772905378     
 soft         electrons  0.000000000000000E+000
 augmentation electrons   481.957772905378     
 soft         electrons  0.000000000000000E+000
 augmentation electrons   481.957772905378     
 soft         electrons  0.000000000000000E+000
 augmentation electrons   481.957772905378     
 soft         electrons  0.000000000000000E+000
 augmentation electrons   481.957772905378     
 soft         electrons  0.000000000000000E+000
 augmentation electrons   481.957772905378     
 augmentation electrons   481.957772905378     
 soft         electrons  0.000000000000000E+000
 augmentation electrons   481.957772905378     
 augmentation electrons   481.957772905378     
 soft         electrons  0.000000000000000E+000
 augmentation electrons   481.957772905378     
 soft         electrons  0.000000000000000E+000
 augmentation electrons   481.957772905378     
 soft         electrons  0.000000000000000E+000
 augmentation electrons   481.957772905378     
 soft         electrons  0.000000000000000E+000
 augmentation electrons   481.957772905378     
 soft         electrons  0.000000000000000E+000
 augmentation electrons   481.957772905378     
 soft         electrons  0.000000000000000E+000
 augmentation electrons   481.957772905378     
 soft         electrons  0.000000000000000E+000
 augmentation electrons   481.957772905378     
 soft         electrons  0.000000000000000E+000
 augmentation electrons   481.957772905378     
 soft         electrons  0.000000000000000E+000
 augmentation electrons   481.957772905378     
 soft         electrons  0.000000000000000E+000
 augmentation electrons   481.957772905378     
 soft         electrons  0.000000000000000E+000
 augmentation electrons   481.957772905378     
 soft         electrons  0.000000000000000E+000
 augmentation electrons   481.957772905378     
 soft         electrons  0.000000000000000E+000
 augmentation electrons   481.957772905378     
 soft         electrons  0.000000000000000E+000
 augmentation electrons   481.957772905378     
 soft         electrons  0.000000000000000E+000
 augmentation electrons   481.957772905378     
 soft         electrons  0.000000000000000E+000
 augmentation electrons   481.957772905378     
 soft         electrons  0.000000000000000E+000
 augmentation electrons   481.957772905378     
 soft         electrons  0.000000000000000E+000
 augmentation electrons   481.957772905378     
 soft         electrons  0.000000000000000E+000
 augmentation electrons   481.957772905378     
 soft         electrons  0.000000000000000E+000
 augmentation electrons   481.957772905378     
 soft         electrons  0.000000000000000E+000
 augmentation electrons   481.957772905378     
 soft         electrons  0.000000000000000E+000
 augmentation electrons   481.957772905378     
 soft         electrons  0.000000000000000E+000
 augmentation electrons   481.957772905378     
 soft         electrons  0.000000000000000E+000
 augmentation electrons   481.957772905378     
 soft         electrons  0.000000000000000E+000
 augmentation electrons   481.957772905378     
 soft         electrons  0.000000000000000E+000
 augmentation electrons   481.957772905378     
 soft         electrons  0.000000000000000E+000
 augmentation electrons   481.957772905378     
 soft         electrons  0.000000000000000E+000
 augmentation electrons   481.957772905378     
 soft         electrons  0.000000000000000E+000
 augmentation electrons   481.957772905378     
 soft         electrons  0.000000000000000E+000
 augmentation electrons   481.957772905378     
 soft         electrons  0.000000000000000E+000
 augmentation electrons   481.957772905378     
 soft         electrons  0.000000000000000E+000
 augmentation electrons   481.957772905378     
 soft         electrons  0.000000000000000E+000
 augmentation electrons   481.957772905378     
 soft         electrons  0.000000000000000E+000
 augmentation electrons   481.957772905378     
 soft         electrons  0.000000000000000E+000
 augmentation electrons   481.957772905378     
 soft         electrons  0.000000000000000E+000
 augmentation electrons   481.957772905378     
 soft         electrons  0.000000000000000E+000
 soft         electrons  0.000000000000000E+000
 augmentation electrons   481.957772905378     
 soft         electrons  0.000000000000000E+000
 augmentation electrons   481.957772905378     
 soft         electrons  0.000000000000000E+000
 total        electrons   481.957772905378     
 augmentation electrons   481.957772905378     
 soft         electrons  0.000000000000000E+000
 augmentation electrons   481.957772905378     
 soft         electrons  0.000000000000000E+000
 total        electrons   481.957772905378     
 augmentation electrons   481.957772905378     
 soft         electrons  0.000000000000000E+000
 augmentation electrons   481.957772905378     
 soft         electrons  0.000000000000000E+000
 total        electrons   481.957772905378     
 augmentation electrons   481.957772905378     
 soft         electrons  0.000000000000000E+000
 augmentation electrons   481.957772905378     
 soft         electrons  0.000000000000000E+000
 total        electrons   481.957772905378     
 augmentation electrons   481.957772905378     
 soft         electrons  0.000000000000000E+000
 augmentation electrons   481.957772905378     
 soft         electrons  0.000000000000000E+000
 total        electrons   481.957772905378     
 augmentation electrons   481.957772905378     
 soft         electrons  0.000000000000000E+000
 augmentation electrons   481.957772905378     
 soft         electrons  0.000000000000000E+000
 total        electrons   481.957772905378     
 augmentation electrons   481.957772905378     
 soft         electrons  0.000000000000000E+000
 augmentation electrons   481.957772905378     
 soft         electrons  0.000000000000000E+000
 total        electrons   481.957772905378     
 augmentation electrons   481.957772905378     
 soft         electrons  0.000000000000000E+000
 augmentation electrons   481.957772905378     
 soft         electrons  0.000000000000000E+000
 total        electrons   481.957772905378     
 augmentation electrons   481.957772905378     
 soft         electrons  0.000000000000000E+000
 augmentation electrons   481.957772905378     
 soft         electrons  0.000000000000000E+000
 total        electrons   481.957772905378     
 augmentation electrons   481.957772905378     
 soft         electrons  0.000000000000000E+000
 augmentation electrons   481.957772905378     
 soft         electrons  0.000000000000000E+000
 total        electrons   481.957772905378     
 augmentation electrons   481.957772905378     
 soft         electrons  0.000000000000000E+000
 augmentation electrons   481.957772905378     
 soft         electrons  0.000000000000000E+000
 total        electrons   481.957772905378     
 augmentation electrons   481.957772905378     
 soft         electrons  0.000000000000000E+000
 soft         electrons  0.000000000000000E+000
 total        electrons   481.957772905378     
 augmentation electrons   481.957772905378     
 soft         electrons  0.000000000000000E+000
 total        electrons   481.957772905378     
 total        electrons   481.957772905378     
 soft         electrons  0.000000000000000E+000
 total        electrons   481.957772905378     
 total        electrons   481.957772905378     
 total        electrons   481.957772905378     
 total        electrons   481.957772905378     
 total        electrons   481.957772905378     
 total        electrons   481.957772905378     
 total        electrons   481.957772905378     
 total        electrons   481.957772905378     
 total        electrons   481.957772905378     
 total        electrons   481.957772905378     
 total        electrons   481.957772905378     
 total        electrons   481.957772905378     
 total        electrons   481.957772905378     
 total        electrons   481.957772905378     
 total        electrons   481.957772905378     
 total        electrons   481.957772905378     
 total        electrons   481.957772905378     
 total        electrons   481.957772905378     
 total        electrons   481.957772905378     
 total        electrons   481.957772905378     
 total        electrons   481.957772905378     
 total        electrons   481.957772905378     
 total        electrons   481.957772905378     
 total        electrons   481.957772905378     
 total        electrons   481.957772905378     
 total        electrons   481.957772905378     
 total        electrons   481.957772905378     
 total        electrons   481.957772905378     
 total        electrons   481.957772905378     
 total        electrons   481.957772905378     
 total        electrons   481.957772905378     
 total        electrons   481.957772905378     
 total        electrons   481.957772905378     
 total        electrons   481.957772905378     
 total        electrons   481.957772905378     
 total        electrons   481.957772905378     
 total        electrons   481.957772905378     
 total        electrons   481.957772905378     
 total        electrons   481.957772905378     
 total        electrons   481.957772905378     
 total        electrons   481.957772905378     
 total        electrons   481.957772905378     
 total        electrons   481.957772905378     
 total        electrons   481.957772905378     
 total        electrons   481.957772905378     
 total        electrons   481.957772905378     
 total        electrons   481.957772905378     
 total        electrons   481.957772905378     
 total        electrons   481.957772905378     
 total        electrons   481.957772905378     
 total        electrons   481.957772905378     
 total        electrons   481.957772905378     
 total        electrons   481.957772905378     
 total        electrons   481.957772905378     
 total        electrons   481.957772905378     
 total        electrons   481.957772905378     
 total        electrons   481.957772905378     
 total        electrons   481.957772905378     
 entering main loop
       N       E                     dE             d eps       ncg     rms          rms(c)
Total vdW correction in eV:     53.7248234
RMM:   1     0.124143246200E+04    0.12414E+04   -0.27931E+04   510   0.785E+02
RMM:   2     0.545067867707E+03   -0.69636E+03   -0.75572E+03   510   0.166E+02
RMM:   3     0.310055969989E+03   -0.23501E+03   -0.29884E+03   510   0.832E+01
RMM:   4     0.138261896108E+03   -0.17179E+03   -0.14824E+03   510   0.789E+01
RMM:   5     0.232276887739E+02   -0.11503E+03   -0.92139E+02   510   0.636E+01
RMM:   6    -0.416089689992E+02   -0.64837E+02   -0.48971E+02   510   0.463E+01
RMM:   7    -0.699974060369E+02   -0.28388E+02   -0.21202E+02   510   0.274E+01
RMM:   8    -0.780956838120E+02   -0.80983E+01   -0.64582E+01   510   0.148E+01
RMM:   9    -0.805252881908E+02   -0.24296E+01   -0.22909E+01  1473   0.791E+00
RMM:  10    -0.808108122726E+02   -0.28552E+00   -0.30363E+00  1749   0.283E+00
RMM:  11    -0.808101354952E+02    0.67678E-03   -0.15784E-01  1721   0.692E-01
RMM:  12    -0.808123444639E+02   -0.22090E-02   -0.31267E-02  1794   0.275E-01    0.203E+01
Total vdW correction in eV:     53.7982585
RMM:  13    -0.708866953251E+02    0.99256E+01   -0.62850E+01  1401   0.146E+01    0.795E+00
Total vdW correction in eV:     53.7640413
RMM:  14    -0.988221501649E+02   -0.27935E+02   -0.15950E+01  1595   0.376E+00    0.110E+01
Total vdW correction in eV:     53.7468361
RMM:  15    -0.692394974603E+02    0.29583E+02   -0.36673E+00  1457   0.166E+00    0.494E+00
Total vdW correction in eV:     53.6898352
RMM:  16    -0.692122556224E+02    0.27242E-01   -0.14375E+00  1600   0.197E+00    0.258E+00
Total vdW correction in eV:     53.6818072
RMM:  17    -0.688799855729E+02    0.33227E+00   -0.45243E-01  1366   0.138E+00    0.877E-01
Total vdW correction in eV:     53.6939700
RMM:  18    -0.688511230482E+02    0.28863E-01   -0.12141E-01  1556   0.664E-01    0.362E-01
Total vdW correction in eV:     53.7006236
RMM:  19    -0.688469635214E+02    0.41595E-02   -0.26650E-02  1406   0.305E-01    0.234E-01
Total vdW correction in eV:     53.7069235
RMM:  20    -0.688471259808E+02   -0.16246E-03   -0.11001E-02  1478   0.205E-01    0.835E-02
Total vdW correction in eV:     53.7191392
RMM:  21    -0.688420148326E+02    0.51111E-02   -0.27008E-03  1460   0.907E-02    0.480E-02
Total vdW correction in eV:     53.7254433
RMM:  22    -0.688352517862E+02    0.67630E-02   -0.74601E-04  1472   0.425E-02    0.347E-02
Total vdW correction in eV:     53.7317800
RMM:  23    -0.688314884749E+02    0.37633E-02   -0.42228E-04  1215   0.432E-02    0.167E-02
Total vdW correction in eV:     53.7366342
RMM:  24    -0.688335987152E+02   -0.21102E-02   -0.32662E-04  1139   0.425E-02    0.134E-02
Total vdW correction in eV:     53.7387674
RMM:  25    -0.688344167194E+02   -0.81800E-03   -0.21053E-04  1071   0.344E-02    0.653E-03
Total vdW correction in eV:     53.7400438
RMM:  26    -0.688343007392E+02    0.11598E-03   -0.36575E-04  1066   0.295E-02    0.610E-03
Total vdW correction in eV:     53.7400260
RMM:  27    -0.688342831853E+02    0.17554E-04   -0.68585E-05   999   0.129E-02    0.239E-03
Total vdW correction in eV:     53.7399797
RMM:  28    -0.688342736636E+02    0.95217E-05   -0.60876E-05   872   0.122E-02    0.134E-03
Total vdW correction in eV:     53.7398605
RMM:  29    -0.688342907382E+02   -0.17075E-04   -0.39462E-05   839   0.102E-02    0.153E-03
Total vdW correction in eV:     53.7397559
RMM:  30    -0.688343321118E+02   -0.41374E-04   -0.10067E-05   802   0.554E-03    0.194E-03
Total vdW correction in eV:     53.7397355
RMM:  31    -0.688343644427E+02   -0.32331E-04   -0.32675E-06   733   0.387E-03    0.193E-03
Total vdW correction in eV:     53.7397092
RMM:  32    -0.688343681816E+02   -0.37389E-05   -0.52604E-06   780   0.448E-03
Total vdW correction in eV:     53.7396468
Total vdW correction in eV:     53.7396958
   1 F= -.68834368E+02 E0= -.68834368E+02  d E =0.000000E+00
 augmentation electrons   4.46637620591270     
 soft         electrons   133.572071939204     
 augmentation electrons   4.46637620591270     
 soft         electrons   133.572071939204     
 augmentation electrons   4.46637620591270     
 soft         electrons   133.572071939204     
 augmentation electrons   4.46637620591270     
 soft         electrons   133.572071939204     
 augmentation electrons   4.46637620591270     
 soft         electrons   133.572071939204     
 augmentation electrons   4.46637620591270     
 soft         electrons   133.572071939204     
 augmentation electrons   4.46637620591270     
 soft         electrons   133.572071939204     
 augmentation electrons   4.46637620591270     
 soft         electrons   133.572071939204     
 augmentation electrons   4.46637620591270     
 soft         electrons   133.572071939204     
 augmentation electrons   4.46637620591270     
 soft         electrons   133.572071939204     
 augmentation electrons   4.46637620591270     
 soft         electrons   133.572071939204     
 augmentation electrons   4.46637620591270     
 soft         electrons   133.572071939204     
 augmentation electrons   4.46637620591270     
 soft         electrons   133.572071939204     
 augmentation electrons   4.46637620591270     
 augmentation electrons   4.46637620591270     
 soft         electrons   133.572071939204     
 augmentation electrons   4.46637620591270     
 soft         electrons   133.572071939204     
 augmentation electrons   4.46637620591270     
 soft         electrons   133.572071939204     
 augmentation electrons   4.46637620591270     
 soft         electrons   133.572071939204     
 augmentation electrons   4.46637620591270     
 soft         electrons   133.572071939204     
 augmentation electrons   4.46637620591270     
 soft         electrons   133.572071939204     
 augmentation electrons   4.46637620591270     
 soft         electrons   133.572071939204     
 augmentation electrons   4.46637620591270     
 soft         electrons   133.572071939204     
 augmentation electrons   4.46637620591270     
 soft         electrons   133.572071939204     
 augmentation electrons   4.46637620591270     
 soft         electrons   133.572071939204     
 augmentation electrons   4.46637620591270     
 soft         electrons   133.572071939204     
 augmentation electrons   4.46637620591270     
 soft         electrons   133.572071939204     
 augmentation electrons   4.46637620591270     
 soft         electrons   133.572071939204     
 augmentation electrons   4.46637620591270     
 soft         electrons   133.572071939204     
 augmentation electrons   4.46637620591270     
 soft         electrons   133.572071939204     
 augmentation electrons   4.46637620591270     
 soft         electrons   133.572071939204     
 augmentation electrons   4.46637620591270     
 soft         electrons   133.572071939204     
 augmentation electrons   4.46637620591270     
 soft         electrons   133.572071939204     
 augmentation electrons   4.46637620591270     
 soft         electrons   133.572071939204     
 augmentation electrons   4.46637620591270     
 soft         electrons   133.572071939204     
 augmentation electrons   4.46637620591270     
 soft         electrons   133.572071939204     
 augmentation electrons   4.46637620591270     
 soft         electrons   133.572071939204     
 augmentation electrons   4.46637620591270     
 augmentation electrons   4.46637620591270     
 soft         electrons   133.572071939204     
 augmentation electrons   4.46637620591270     
 augmentation electrons   4.46637620591270     
 soft         electrons   133.572071939204     
 augmentation electrons   4.46637620591270     
 soft         electrons   133.572071939204     
 augmentation electrons   4.46637620591270     
 soft         electrons   133.572071939204     
 augmentation electrons   4.46637620591270     
 soft         electrons   133.572071939204     
 augmentation electrons   4.46637620591270     
 soft         electrons   133.572071939204     
 augmentation electrons   4.46637620591270     
 soft         electrons   133.572071939204     
 augmentation electrons   4.46637620591270     
 soft         electrons   133.572071939204     
 augmentation electrons   4.46637620591270     
 soft         electrons   133.572071939204     
 augmentation electrons   4.46637620591270     
 soft         electrons   133.572071939204     
 augmentation electrons   4.46637620591270     
 soft         electrons   133.572071939204     
 soft         electrons   133.572071939204     
 augmentation electrons   4.46637620591270     
 soft         electrons   133.572071939204     
 augmentation electrons   4.46637620591270     
 soft         electrons   133.572071939204     
 total        electrons   138.038448145117     
 augmentation electrons   4.46637620591270     
 soft         electrons   133.572071939204     
 augmentation electrons   4.46637620591270     
 soft         electrons   133.572071939204     
 total        electrons   138.038448145117     
 augmentation electrons   4.46637620591270     
 soft         electrons   133.572071939204     
 augmentation electrons   4.46637620591270     
 soft         electrons   133.572071939204     
 total        electrons   138.038448145117     
 augmentation electrons   4.46637620591270     
 soft         electrons   133.572071939204     
 augmentation electrons   4.46637620591270     
 soft         electrons   133.572071939204     
 total        electrons   138.038448145117     
 augmentation electrons   4.46637620591270     
 soft         electrons   133.572071939204     
 augmentation electrons   4.46637620591270     
 soft         electrons   133.572071939204     
 total        electrons   138.038448145117     
 augmentation electrons   4.46637620591270     
 soft         electrons   133.572071939204     
 augmentation electrons   4.46637620591270     
 soft         electrons   133.572071939204     
 total        electrons   138.038448145117     
 augmentation electrons   4.46637620591270     
 soft         electrons   133.572071939204     
 augmentation electrons   4.46637620591270     
 soft         electrons   133.572071939204     
 total        electrons   138.038448145117     
 augmentation electrons   4.46637620591270     
 soft         electrons   133.572071939204     
 augmentation electrons   4.46637620591270     
 soft         electrons   133.572071939204     
 total        electrons   138.038448145117     
 augmentation electrons   4.46637620591270     
 soft         electrons   133.572071939204     
 augmentation electrons   4.46637620591270     
 soft         electrons   133.572071939204     
 total        electrons   138.038448145117     
 augmentation electrons   4.46637620591270     
 soft         electrons   133.572071939204     
 augmentation electrons   4.46637620591270     
 soft         electrons   133.572071939204     
 total        electrons   138.038448145117     
 augmentation electrons   4.46637620591270     
 soft         electrons   133.572071939204     
 augmentation electrons   4.46637620591270     
 soft         electrons   133.572071939204     
 total        electrons   138.038448145117     
 augmentation electrons   4.46637620591270     
 soft         electrons   133.572071939204     
 soft         electrons   133.572071939204     
 total        electrons   138.038448145117     
 soft         electrons   133.572071939204     
 total        electrons   138.038448145117     
 total        electrons   138.038448145117     
 total        electrons   138.038448145117     
 total        electrons   138.038448145117     
 total        electrons   138.038448145117     
 total        electrons   138.038448145117     
 total        electrons   138.038448145117     
 total        electrons   138.038448145117     
 total        electrons   138.038448145117     
 total        electrons   138.038448145117     
 total        electrons   138.038448145117     
 total        electrons   138.038448145117     
 total        electrons   138.038448145117     
 total        electrons   138.038448145117     
 total        electrons   138.038448145117     
 total        electrons   138.038448145117     
 total        electrons   138.038448145117     
 total        electrons   138.038448145117     
 total        electrons   138.038448145117     
 total        electrons   138.038448145117     
 total        electrons   138.038448145117     
 total        electrons   138.038448145117     
 total        electrons   138.038448145117     
 total        electrons   138.038448145117     
 total        electrons   138.038448145117     
 total        electrons   138.038448145117     
 total        electrons   138.038448145117     
 total        electrons   138.038448145117     
 total        electrons   138.038448145117     
 total        electrons   138.038448145117     
 total        electrons   138.038448145117     
 total        electrons   138.038448145117     
 total        electrons   138.038448145117     
 total        electrons   138.038448145117     
 total        electrons   138.038448145117     
 total        electrons   138.038448145117     
 total        electrons   138.038448145117     
 total        electrons   138.038448145117     
 total        electrons   138.038448145117     
 total        electrons   138.038448145117     
 total        electrons   138.038448145117     
 total        electrons   138.038448145117     
 total        electrons   138.038448145117     
 total        electrons   138.038448145117     
 total        electrons   138.038448145117     
 total        electrons   138.038448145117     
 total        electrons   138.038448145117     
 total        electrons   138.038448145117     
 total        electrons   138.038448145117     
 total        electrons   138.038448145117     
 total        electrons   138.038448145117     
 total        electrons   138.038448145117     
 total        electrons   138.038448145117     
 total        electrons   138.038448145117     
 total        electrons   138.038448145117     
 total        electrons   138.038448145117     
 total        electrons   138.038448145117     
 total        electrons   138.038448145117     
 total        electrons   138.038448145117     
 total        electrons   138.038448145117     
