Mg_slab_in_a_box                        
           1
     9.555753    0.000000    0.000000
    -4.777876    8.275525    0.000000
     0.000000    0.000000   32.625095
   Mg   O    H 
  45   6  12
Direct configuration=     1
   0.00000000  0.00000000  0.00000000
   0.99892505  0.99883519  0.15802013
   0.00150335  0.00318677  0.33052932
   0.00000001  0.33333336  0.00000000
   0.00007601  0.33256715  0.15751615
   0.99057138  0.33028593  0.30993721
   0.00000002  0.66666672  0.00000000
   0.99873161  0.66510545  0.15762065
   0.00260721  0.67106234  0.31364122
   0.33333334  0.00000000  0.00000000
   0.33328141  0.99917588  0.15705548
   0.32548213  0.99675960  0.30848079
   0.33333335  0.33333336  0.00000000
   0.33253070  0.33178186  0.15730196
   0.32151428  0.32708123  0.31303715
   0.33333336  0.66666672  0.00000000
   0.33245180  0.66627904  0.15802744
   0.31872250  0.66786804  0.33188312
   0.66666668  0.00000000  0.00000000
   0.66645386  0.99793202  0.15748064
   0.66448057  0.99700996  0.31341803
   0.66666668  0.33333336  0.00000000
   0.66650622  0.33361470  0.15878980
   0.65914896  0.31321194  0.32515660
   0.66666670  0.66666672  0.00000000
   0.66881183  0.66638379  0.15884196
   0.65972868  0.66548689  0.32613389
   0.11111113  0.22222222  0.07982145
   0.10917921  0.21800280  0.23610592
   0.11111114  0.55555561  0.07982145
   0.11556590  0.55719037  0.23634100
   0.11111116  0.88888894  0.07982145
   0.10706236  0.88587546  0.23419061
   0.44444450  0.22222222  0.07982145
   0.44582242  0.22511596  0.23610981
   0.44444450  0.55555561  0.07982145
   0.44555215  0.55626599  0.23527025
   0.44444451  0.88888894  0.07982145
   0.44322544  0.88275730  0.23584121
   0.77777779  0.22222222  0.07982145
   0.77289024  0.21777218  0.23474239
   0.77777781  0.55555561  0.07982145
   0.77174151  0.54905432  0.24101328
   0.77777784  0.88888894  0.07982145
   0.77963993  0.88394653  0.23983182
   0.99502426  0.01260302  0.39600059
   0.28001229  0.97067204  0.41207074
   0.90086891  0.24622316  0.41198845
   0.63446003  0.33299608  0.38797946
   0.66092583  0.60486234  0.38353546
   0.30535364  0.69081090  0.39681671
   0.97300488  0.09520376  0.40794693
   0.08255966  0.01144325  0.41156252
   0.38279210  0.07381129  0.41166998
   0.24641119  0.95515873  0.38262199
   0.99564931  0.35446876  0.40902606
   0.86076511  0.21767975  0.38317138
   0.64839269  0.45201627  0.39148159
   0.71624195  0.32649257  0.40467704
   0.69681002  0.68576912  0.40499748
   0.41727397  0.53732545  0.33695255
   0.30376624  0.78841343  0.40692493
   0.37664941  0.67271532  0.41472878
