  63  63   0   0
  0.4095168E+02  0.9555753E-09  0.9555753E-09  0.3262510E-08  0.5000000E-15
  1.000000000000000E-004
  CAR 
 Mg_slab_in_a_box                        
      4.13940897    -25.87762385  301     -0.68182767      1.00000000
    -25.878  0.0000E+00  0.0000E+00
    -25.778  0.0000E+00  0.0000E+00
    -25.678  0.0000E+00  0.0000E+00
    -25.577  0.0000E+00  0.0000E+00
    -25.477  0.0000E+00  0.0000E+00
    -25.377  0.0000E+00  0.0000E+00
    -25.277  0.0000E+00  0.0000E+00
    -25.177  0.0000E+00  0.0000E+00
    -25.077  0.0000E+00  0.0000E+00
    -24.977  0.0000E+00  0.0000E+00
    -24.877  0.0000E+00  0.0000E+00
    -24.777  0.0000E+00  0.0000E+00
    -24.677  0.0000E+00  0.0000E+00
    -24.577  0.0000E+00  0.0000E+00
    -24.477  0.0000E+00  0.0000E+00
    -24.377  0.0000E+00  0.0000E+00
    -24.277  0.0000E+00  0.0000E+00
    -24.177  0.0000E+00  0.0000E+00
    -24.077  0.0000E+00  0.0000E+00
    -23.977  0.0000E+00  0.0000E+00
    -23.876  0.6883E+02  0.3908E-01
    -23.776  0.0000E+00  0.4000E+01
    -23.676  0.0000E+00  0.4000E+01
    -23.576  0.0000E+00  0.6000E+01
    -23.476  0.0000E+00  0.8000E+01
    -23.376  0.0000E+00  0.1000E+02
    -23.276  0.0000E+00  0.1000E+02
    -23.176  0.0000E+00  0.1200E+02
    -23.076  0.0000E+00  0.1200E+02
    -22.976  0.0000E+00  0.1200E+02
    -22.876  0.0000E+00  0.1200E+02
    -22.776  0.0000E+00  0.1200E+02
    -22.676  0.0000E+00  0.1200E+02
    -22.576  0.0000E+00  0.1200E+02
    -22.476  0.0000E+00  0.1200E+02
    -22.376  0.0000E+00  0.1200E+02
    -22.276  0.0000E+00  0.1200E+02
    -22.176  0.0000E+00  0.1200E+02
    -22.075  0.0000E+00  0.1200E+02
    -21.975  0.0000E+00  0.1200E+02
    -21.875  0.0000E+00  0.1200E+02
    -21.775  0.0000E+00  0.1200E+02
    -21.675  0.0000E+00  0.1200E+02
    -21.575  0.0000E+00  0.1200E+02
    -21.475  0.0000E+00  0.1200E+02
    -21.375  0.0000E+00  0.1200E+02
    -21.275  0.0000E+00  0.1200E+02
    -21.175  0.0000E+00  0.1200E+02
    -21.075  0.0000E+00  0.1200E+02
    -20.975  0.0000E+00  0.1200E+02
    -20.875  0.0000E+00  0.1200E+02
    -20.775  0.0000E+00  0.1200E+02
    -20.675  0.0000E+00  0.1200E+02
    -20.575  0.0000E+00  0.1200E+02
    -20.475  0.0000E+00  0.1200E+02
    -20.375  0.0000E+00  0.1200E+02
    -20.274  0.0000E+00  0.1200E+02
    -20.174  0.0000E+00  0.1200E+02
    -20.074  0.0000E+00  0.1200E+02
    -19.974  0.0000E+00  0.1200E+02
    -19.874  0.0000E+00  0.1200E+02
    -19.774  0.0000E+00  0.1200E+02
    -19.674  0.0000E+00  0.1200E+02
    -19.574  0.0000E+00  0.1200E+02
    -19.474  0.0000E+00  0.1200E+02
    -19.374  0.0000E+00  0.1200E+02
    -19.274  0.0000E+00  0.1200E+02
    -19.174  0.0000E+00  0.1200E+02
    -19.074  0.0000E+00  0.1200E+02
    -18.974  0.0000E+00  0.1200E+02
    -18.874  0.0000E+00  0.1200E+02
    -18.774  0.0000E+00  0.1200E+02
    -18.674  0.0000E+00  0.1200E+02
    -18.573  0.0000E+00  0.1200E+02
    -18.473  0.0000E+00  0.1200E+02
    -18.373  0.0000E+00  0.1200E+02
    -18.273  0.0000E+00  0.1200E+02
    -18.173  0.0000E+00  0.1200E+02
    -18.073  0.0000E+00  0.1200E+02
    -17.973  0.0000E+00  0.1200E+02
    -17.873  0.0000E+00  0.1200E+02
    -17.773  0.0000E+00  0.1200E+02
    -17.673  0.0000E+00  0.1200E+02
    -17.573  0.0000E+00  0.1200E+02
    -17.473  0.0000E+00  0.1200E+02
    -17.373  0.0000E+00  0.1200E+02
    -17.273  0.0000E+00  0.1200E+02
    -17.173  0.0000E+00  0.1200E+02
    -17.073  0.0000E+00  0.1200E+02
    -16.973  0.0000E+00  0.1200E+02
    -16.873  0.0000E+00  0.1200E+02
    -16.772  0.0000E+00  0.1200E+02
    -16.672  0.0000E+00  0.1200E+02
    -16.572  0.0000E+00  0.1200E+02
    -16.472  0.0000E+00  0.1200E+02
    -16.372  0.0000E+00  0.1200E+02
    -16.272  0.0000E+00  0.1200E+02
    -16.172  0.0000E+00  0.1200E+02
    -16.072  0.0000E+00  0.1200E+02
    -15.972  0.0000E+00  0.1200E+02
    -15.872  0.0000E+00  0.1200E+02
    -15.772  0.0000E+00  0.1200E+02
    -15.672  0.0000E+00  0.1200E+02
    -15.572  0.0000E+00  0.1200E+02
    -15.472  0.0000E+00  0.1200E+02
    -15.372  0.0000E+00  0.1200E+02
    -15.272  0.0000E+00  0.1200E+02
    -15.172  0.0000E+00  0.1200E+02
    -15.071  0.0000E+00  0.1200E+02
    -14.971  0.0000E+00  0.1200E+02
    -14.871  0.0000E+00  0.1200E+02
    -14.771  0.0000E+00  0.1200E+02
    -14.671  0.0000E+00  0.1200E+02
    -14.571  0.0000E+00  0.1200E+02
    -14.471  0.0000E+00  0.1200E+02
    -14.371  0.0000E+00  0.1200E+02
    -14.271  0.0000E+00  0.1200E+02
    -14.171  0.0000E+00  0.1200E+02
    -14.071  0.0000E+00  0.1200E+02
    -13.971  0.0000E+00  0.1200E+02
    -13.871  0.0000E+00  0.1200E+02
    -13.771  0.0000E+00  0.1200E+02
    -13.671  0.0000E+00  0.1200E+02
    -13.571  0.0000E+00  0.1200E+02
    -13.471  0.0000E+00  0.1200E+02
    -13.371  0.0000E+00  0.1200E+02
    -13.270  0.0000E+00  0.1200E+02
    -13.170  0.0000E+00  0.1200E+02
    -13.070  0.0000E+00  0.1200E+02
    -12.970  0.0000E+00  0.1200E+02
    -12.870  0.0000E+00  0.1200E+02
    -12.770  0.0000E+00  0.1200E+02
    -12.670  0.0000E+00  0.1200E+02
    -12.570  0.0000E+00  0.1200E+02
    -12.470  0.0000E+00  0.1200E+02
    -12.370  0.0000E+00  0.1200E+02
    -12.270  0.0000E+00  0.1200E+02
    -12.170  0.0000E+00  0.1200E+02
    -12.070  0.0000E+00  0.1200E+02
    -11.970  0.0000E+00  0.1200E+02
    -11.870  0.0000E+00  0.1400E+02
    -11.770  0.0000E+00  0.1600E+02
    -11.670  0.0000E+00  0.1800E+02
    -11.570  0.0000E+00  0.1800E+02
    -11.469  0.0000E+00  0.1800E+02
    -11.369  0.0000E+00  0.1800E+02
    -11.269  0.0000E+00  0.1800E+02
    -11.169  0.0000E+00  0.2000E+02
    -11.069  0.0000E+00  0.2200E+02
    -10.969  0.0000E+00  0.2400E+02
    -10.869  0.0000E+00  0.2400E+02
    -10.769  0.0000E+00  0.2400E+02
    -10.669  0.0000E+00  0.2400E+02
    -10.569  0.0000E+00  0.2400E+02
    -10.469  0.0000E+00  0.2400E+02
    -10.369  0.0000E+00  0.2400E+02
    -10.269  0.0000E+00  0.2400E+02
    -10.169  0.0000E+00  0.2400E+02
    -10.069  0.0000E+00  0.2400E+02
     -9.969  0.0000E+00  0.2400E+02
     -9.869  0.0000E+00  0.2400E+02
     -9.768  0.0000E+00  0.2400E+02
     -9.668  0.0000E+00  0.2400E+02
     -9.568  0.0000E+00  0.2400E+02
     -9.468  0.0000E+00  0.2400E+02
     -9.368  0.0000E+00  0.2400E+02
     -9.268  0.0000E+00  0.2400E+02
     -9.168  0.0000E+00  0.2400E+02
     -9.068  0.0000E+00  0.2400E+02
     -8.968  0.0000E+00  0.2400E+02
     -8.868  0.0000E+00  0.2400E+02
     -8.768  0.0000E+00  0.2400E+02
     -8.668  0.0000E+00  0.2600E+02
     -8.568  0.1064E+03  0.2973E+02
     -8.468  0.0000E+00  0.3000E+02
     -8.368  0.0000E+00  0.3000E+02
     -8.268  0.0000E+00  0.3000E+02
     -8.168  0.0000E+00  0.3000E+02
     -8.068  0.0000E+00  0.3000E+02
     -7.967  0.0000E+00  0.3200E+02
     -7.867  0.0000E+00  0.3400E+02
     -7.767  0.0000E+00  0.3400E+02
     -7.667  0.0000E+00  0.3600E+02
     -7.567  0.0000E+00  0.3600E+02
     -7.467  0.1336E+00  0.3600E+02
     -7.367  0.2407E+01  0.3613E+02
     -7.267  0.4681E+01  0.3648E+02
     -7.167  0.4837E+01  0.3700E+02
     -7.067  0.3667E+01  0.3742E+02
     -6.967  0.2498E+01  0.3773E+02
     -6.867  0.1401E+01  0.3792E+02
     -6.767  0.2931E+01  0.3814E+02
     -6.667  0.3302E+02  0.3971E+02
     -6.567  0.3759E+02  0.4143E+02
     -6.467  0.9669E+01  0.4382E+02
     -6.367  0.1037E+02  0.4583E+02
     -6.266  0.3017E+01  0.4756E+02
     -6.166  0.1989E+01  0.4781E+02
     -6.066  0.1391E+02  0.4831E+02
     -5.966  0.4482E+02  0.5095E+02
     -5.866  0.2232E+02  0.5415E+02
     -5.766  0.1156E+02  0.5670E+02
     -5.666  0.1613E+02  0.5897E+02
     -5.566  0.1180E+02  0.6037E+02
     -5.466  0.7468E+01  0.6133E+02
     -5.366  0.3136E+01  0.6186E+02
     -5.266  0.6852E+01  0.6204E+02
     -5.166  0.2787E+02  0.6503E+02
     -5.066  0.0000E+00  0.6600E+02
     -4.966  0.1089E+02  0.6644E+02
     -4.866  0.6607E+01  0.6731E+02
     -4.766  0.2743E+01  0.6776E+02
     -4.666  0.5951E+01  0.6817E+02
     -4.566  0.4311E+02  0.6938E+02
     -4.465  0.1589E+02  0.7159E+02
     -4.365  0.9232E+01  0.7357E+02
     -4.265  0.1914E+02  0.7544E+02
     -4.165  0.1517E+02  0.7762E+02
     -4.065  0.1249E+01  0.7835E+02
     -3.965  0.8353E+01  0.7858E+02
     -3.865  0.3790E+02  0.8068E+02
     -3.765  0.1631E+02  0.8333E+02
     -3.665  0.6675E+01  0.8464E+02
     -3.565  0.6300E+01  0.8528E+02
     -3.465  0.6230E+01  0.8591E+02
     -3.365  0.6161E+01  0.8653E+02
     -3.265  0.6092E+01  0.8714E+02
     -3.165  0.3744E+02  0.8847E+02
     -3.065  0.6488E+01  0.9107E+02
     -2.965  0.2182E+02  0.9210E+02
     -2.865  0.3481E+02  0.9556E+02
     -2.765  0.2754E+02  0.9927E+02
     -2.664  0.1214E+02  0.1011E+03
     -2.564  0.6482E+01  0.1020E+03
     -2.464  0.2301E+02  0.1028E+03
     -2.364  0.3278E+02  0.1062E+03
     -2.264  0.2401E+01  0.1075E+03
     -2.164  0.1237E+02  0.1085E+03
     -2.064  0.4728E+01  0.1094E+03
     -1.964  0.9577E+01  0.1098E+03
     -1.864  0.2669E+02  0.1116E+03
     -1.764  0.3263E+02  0.1148E+03
     -1.664  0.3594E+02  0.1182E+03
     -1.564  0.2661E+02  0.1217E+03
     -1.464  0.1503E+02  0.1238E+03
     -1.364  0.9671E+01  0.1250E+03
     -1.264  0.1118E+02  0.1275E+03
     -1.164  0.8121E+01  0.1284E+03
     -1.064  0.1495E+02  0.1294E+03
     -0.963  0.3885E+02  0.1321E+03
     -0.863  0.1414E+02  0.1348E+03
     -0.763  0.1012E+02  0.1358E+03
     -0.663  0.6100E+02  0.1392E+03
     -0.563  0.1691E+02  0.1425E+03
     -0.463  0.1061E+02  0.1443E+03
     -0.363  0.1378E+02  0.1453E+03
     -0.263  0.1712E+02  0.1469E+03
     -0.163  0.1479E+02  0.1482E+03
     -0.063  0.0000E+00  0.1500E+03
      0.037  0.4158E+02  0.1534E+03
      0.137  0.3638E+02  0.1555E+03
      0.237  0.1482E+01  0.1600E+03
      0.337  0.9000E+01  0.1605E+03
      0.437  0.1695E+02  0.1618E+03
      0.537  0.3345E+02  0.1645E+03
      0.637  0.1971E+02  0.1684E+03
      0.737  0.7019E+01  0.1695E+03
      0.838  0.7823E+02  0.1711E+03
      0.938  0.1038E+02  0.1750E+03
      1.038  0.1768E+03  0.1772E+03
      1.138  0.1544E+02  0.1794E+03
      1.238  0.2129E+02  0.1815E+03
      1.338  0.2551E+02  0.1853E+03
      1.438  0.6391E+02  0.1895E+03
      1.538  0.3537E+02  0.1947E+03
      1.638  0.2916E+02  0.1989E+03
      1.738  0.6211E+01  0.2002E+03
      1.838  0.1142E+02  0.2012E+03
      1.938  0.5853E+01  0.2021E+03
      2.038  0.2996E+01  0.2025E+03
      2.138  0.1050E+02  0.2040E+03
      2.238  0.0000E+00  0.2040E+03
      2.338  0.0000E+00  0.2040E+03
      2.438  0.0000E+00  0.2040E+03
      2.539  0.0000E+00  0.2040E+03
      2.639  0.0000E+00  0.2040E+03
      2.739  0.0000E+00  0.2040E+03
      2.839  0.0000E+00  0.2040E+03
      2.939  0.0000E+00  0.2040E+03
      3.039  0.0000E+00  0.2040E+03
      3.139  0.0000E+00  0.2040E+03
      3.239  0.0000E+00  0.2040E+03
      3.339  0.0000E+00  0.2040E+03
      3.439  0.0000E+00  0.2040E+03
      3.539  0.0000E+00  0.2040E+03
      3.639  0.0000E+00  0.2040E+03
      3.739  0.0000E+00  0.2040E+03
      3.839  0.0000E+00  0.2040E+03
      3.939  0.0000E+00  0.2040E+03
      4.039  0.0000E+00  0.2040E+03
      4.139  0.0000E+00  0.2040E+03
