 vasp.5.4.4.18Apr17-6-g9f103f2a35 (build Jun 08 2018 12:06:12) complex          
  
 executed on             LinuxIFC date 2019.06.06  06:38:27
 running on   72 total cores
 distrk:  each k-point on   72 cores,    1 groups
 distr:  one band on NCORES_PER_BAND=  24 cores,    3 groups


--------------------------------------------------------------------------------------------------------


 INCAR:
 POTCAR:    PAW_PBE Mg 13Apr2007                  
 POTCAR:    PAW_PBE O 08Apr2002                   
 POTCAR:    PAW_PBE H 15Jun2001                   

 ----------------------------------------------------------------------------- 
|                                                                             |
|           W    W    AA    RRRRR   N    N  II  N    N   GGGG   !!!           |
|           W    W   A  A   R    R  NN   N  II  NN   N  G    G  !!!           |
|           W    W  A    A  R    R  N N  N  II  N N  N  G       !!!           |
|           W WW W  AAAAAA  RRRRR   N  N N  II  N  N N  G  GGG   !            |
|           WW  WW  A    A  R   R   N   NN  II  N   NN  G    G                |
|           W    W  A    A  R    R  N    N  II  N    N   GGGG   !!!           |
|                                                                             |
|      For optimal performance we recommend to set                            |
|        NCORE= 4 - approx SQRT( number of cores)                             |
|      NCORE specifies how many cores store one orbital (NPAR=cpu/NCORE).     |
|      This setting can  greatly improve the performance of VASP for DFT.     |
|      The default,   NCORE=1            might be grossly inefficient         |
|      on modern multi-core architectures or massively parallel machines.     |
|      Do your own testing !!!!                                               |
|      Unfortunately you need to use the default for GW and RPA calculations. |
|      (for HF NCORE is supported but not extensively tested yet)             |
|                                                                             |
 ----------------------------------------------------------------------------- 


 ----------------------------------------------------------------------------- 
|                                                                             |
|  ADVICE TO THIS USER RUNNING 'VASP/VAMP'   (HEAR YOUR MASTER'S VOICE ...):  |
|                                                                             |
|      You have switched on vdW-DFT.                                          |
|      This routine was written and supplied by Jiri Klimes.                  |
|      We recommed that you carefully read and cite the following             |
|      publication                                                            |
|      J. Klimes, D.R. Bowler, A. Michelides                                  |
|        J. Phys.: Cond Matt. 22 022201 (2010)                                |
|      J. Klimes, D.R. Bowler, A. Michelides                                  |
|        Phys. Rev. B. 83, 195131 (2011)                                      |
|      and references therein.                                                |
|                                                                             |
 ----------------------------------------------------------------------------- 

 POTCAR:    PAW_PBE Mg 13Apr2007                  
   VRHFIN =Mg: s2p0                                                             
   LEXCH  = PE                                                                  
   EATOM  =    23.0369 eV,    1.6932 Ry                                         
                                                                                
   TITEL  = PAW_PBE Mg 13Apr2007                                                
   LULTRA =        F    use ultrasoft PP ?                                      
   IUNSCR =        1    unscreen: 0-lin 1-nonlin 2-no                           
   RPACOR =    1.500    partial core radius                                     
   POMASS =   24.305; ZVAL   =    2.000    mass and valenz                      
   RCORE  =    2.000    outmost cutoff radius                                   
   RWIGS  =    2.880; RWIGS  =    1.524    wigner-seitz radius (au A)           
   ENMAX  =  200.000; ENMIN  =  100.000 eV                                      
   RCLOC  =    1.506    cutoff for local pot                                    
   LCOR   =        T    correct aug charges                                     
   LPAW   =        T    paw PP                                                  
   EAUG   =  454.734                                                            
   DEXC   =    0.000                                                            
   RMAX   =    2.045    core radius for proj-oper                               
   RAUG   =    1.300    factor for augmentation sphere                          
   RDEP   =    2.025    radius for radial grids                                 
   RDEPT  =    1.942    core radius for aug-charge                              
                                                                                
   Atomic configuration                                                         
    6 entries                                                                   
     n  l   j            E        occ.                                          
     1  0  0.50     -1259.6230   2.0000                                         
     2  0  0.50       -79.8442   2.0000                                         
     2  1  1.50       -46.6121   6.0000                                         
     3  0  0.50        -4.7055   2.0000                                         
     3  1  0.50        -1.3660   0.0000                                         
     3  2  1.50        -1.3606   0.0000                                         
   Description                                                                  
     l       E           TYP  RCUT    TYP  RCUT                                 
     0     -4.7054661     23  2.000                                             
     0     27.2116520     23  2.000                                             
     1      1.3605826     23  2.000                                             
     1     27.2116520     23  2.000                                             
     2     -1.3605826     23  2.000                                             
  local pseudopotential read in
  partial core-charges read in
  partial kinetic energy density read in
  atomic valenz-charges read in
  non local Contribution for L=           0  read in
    real space projection operators read in
  non local Contribution for L=           0  read in
    real space projection operators read in
  non local Contribution for L=           1  read in
    real space projection operators read in
  non local Contribution for L=           1  read in
    real space projection operators read in
  non local Contribution for L=           2  read in
    real space projection operators read in
    PAW grid and wavefunctions read in
 
   number of l-projection  operators is LMAX  =           5
   number of lm-projection operators is LMMAX =          13
 
 POTCAR:    PAW_PBE O 08Apr2002                   
   VRHFIN =O: s2p4                                                              
   LEXCH  = PE                                                                  
   EATOM  =   432.3788 eV,   31.7789 Ry                                         
                                                                                
   TITEL  = PAW_PBE O 08Apr2002                                                 
   LULTRA =        F    use ultrasoft PP ?                                      
   IUNSCR =        1    unscreen: 0-lin 1-nonlin 2-no                           
   RPACOR =    1.200    partial core radius                                     
   POMASS =   16.000; ZVAL   =    6.000    mass and valenz                      
   RCORE  =    1.520    outmost cutoff radius                                   
   RWIGS  =    1.550; RWIGS  =    0.820    wigner-seitz radius (au A)           
   ENMAX  =  400.000; ENMIN  =  300.000 eV                                      
   ICORE  =        2    local potential                                         
   LCOR   =        T    correct aug charges                                     
   LPAW   =        T    paw PP                                                  
   EAUG   =  605.392                                                            
   DEXC   =    0.000                                                            
   RMAX   =    1.553    core radius for proj-oper                               
   RAUG   =    1.300    factor for augmentation sphere                          
   RDEP   =    1.550    radius for radial grids                                 
   RDEPT  =    1.329    core radius for aug-charge                              
                                                                                
   Atomic configuration                                                         
    4 entries                                                                   
     n  l   j            E        occ.                                          
     1  0  0.50      -514.6923   2.0000                                         
     2  0  0.50       -23.9615   2.0000                                         
     2  1  0.50        -9.0305   4.0000                                         
     3  2  1.50        -9.5241   0.0000                                         
   Description                                                                  
     l       E           TYP  RCUT    TYP  RCUT                                 
     0    -23.9615318     23  1.200                                             
     0     -9.5240782     23  1.200                                             
     1     -9.0304911     23  1.520                                             
     1      8.1634956     23  1.520                                             
     2     -9.5240782      7  1.500                                             
  local pseudopotential read in
  partial core-charges read in
  partial kinetic energy density read in
  kinetic energy density of atom read in
  atomic valenz-charges read in
  non local Contribution for L=           0  read in
    real space projection operators read in
  non local Contribution for L=           0  read in
    real space projection operators read in
  non local Contribution for L=           1  read in
    real space projection operators read in
  non local Contribution for L=           1  read in
    real space projection operators read in
    PAW grid and wavefunctions read in
 
   number of l-projection  operators is LMAX  =           4
   number of lm-projection operators is LMMAX =           8
 
 POTCAR:    PAW_PBE H 15Jun2001                   
   VRHFIN =H: ultrasoft test                                                    
   LEXCH  = PE                                                                  
   EATOM  =    12.4884 eV,    0.9179 Ry                                         
                                                                                
   TITEL  = PAW_PBE H 15Jun2001                                                 
   LULTRA =        F    use ultrasoft PP ?                                      
   IUNSCR =        0    unscreen: 0-lin 1-nonlin 2-no                           
   RPACOR =    0.000    partial core radius                                     
   POMASS =    1.000; ZVAL   =    1.000    mass and valenz                      
   RCORE  =    1.100    outmost cutoff radius                                   
   RWIGS  =    0.700; RWIGS  =    0.370    wigner-seitz radius (au A)           
   ENMAX  =  250.000; ENMIN  =  200.000 eV                                      
   RCLOC  =    0.701    cutoff for local pot                                    
   LCOR   =        T    correct aug charges                                     
   LPAW   =        T    paw PP                                                  
   EAUG   =  400.000                                                            
   RMAX   =    1.123    core radius for proj-oper                               
   RAUG   =    1.200    factor for augmentation sphere                          
   RDEP   =    1.112    radius for radial grids                                 
   RDEPT  =    0.926    core radius for aug-charge                              
                                                                                
   Atomic configuration                                                         
    2 entries                                                                   
     n  l   j            E        occ.                                          
     1  0  0.50        -6.4927   1.0000                                         
     2  1  0.50        -3.4015   0.0000                                         
   Description                                                                  
     l       E           TYP  RCUT    TYP  RCUT                                 
     0     -6.4927494     23  1.100                                             
     0      6.8029130     23  1.100                                             
     1     -4.0817478     23  1.100                                             
  local pseudopotential read in
  atomic valenz-charges read in
  non local Contribution for L=           0  read in
    real space projection operators read in
  non local Contribution for L=           0  read in
    real space projection operators read in
  non local Contribution for L=           1  read in
    real space projection operators read in
    PAW grid and wavefunctions read in
 
   number of l-projection  operators is LMAX  =           3
   number of lm-projection operators is LMMAX =           5
 
 Optimization of the real space projectors (new method)

 maximal supplied QI-value         = 18.90
 optimisation between [QCUT,QGAM] = [ 11.53, 23.24] = [ 37.21,151.29] Ry 
 Optimized for a Real-space Cutoff    1.28 Angstroem

   l    n(q)    QCUT    max X(q) W(low)/X(q) W(high)/X(q)  e(spline) 
   0      9    11.527    28.265    0.62E-04    0.53E-04    0.73E-07
   0      9    11.527    10.429    0.52E-04    0.40E-04    0.58E-07
   1      8    11.527    13.073    0.98E-04    0.18E-03    0.86E-07
   1      8    11.527     9.625    0.79E-04    0.15E-03    0.74E-07
   2      8    11.527     4.652    0.22E-03    0.72E-04    0.47E-07
 Optimization of the real space projectors (new method)

 maximal supplied QI-value         = 24.76
 optimisation between [QCUT,QGAM] = [ 11.64, 23.27] = [ 37.91,151.63] Ry 
 Optimized for a Real-space Cutoff    1.14 Angstroem

   l    n(q)    QCUT    max X(q) W(low)/X(q) W(high)/X(q)  e(spline) 
   0      8    11.635    20.381    0.10E-03    0.33E-03    0.24E-06
   0      8    11.635    15.268    0.11E-03    0.35E-03    0.26E-06
   1      7    11.635     5.964    0.24E-03    0.31E-03    0.30E-06
   1      7    11.635     5.382    0.22E-03    0.25E-03    0.26E-06
 Optimization of the real space projectors (new method)

 maximal supplied QI-value         = 34.20
 optimisation between [QCUT,QGAM] = [ 11.63, 23.26] = [ 37.87,151.49] Ry 
 Optimized for a Real-space Cutoff    1.21 Angstroem

   l    n(q)    QCUT    max X(q) W(low)/X(q) W(high)/X(q)  e(spline) 
   0      8    11.629    19.460    0.17E-03    0.34E-03    0.21E-06
   0      8    11.629    12.209    0.16E-03    0.33E-03    0.21E-06
   1      8    11.629     4.655    0.18E-03    0.16E-03    0.26E-06

 ----------------------------------------------------------------------------- 
|                                                                             |
|  ADVICE TO THIS USER RUNNING 'VASP/VAMP'   (HEAR YOUR MASTER'S VOICE ...):  |
|                                                                             |
|      You enforced a specific xc-type in the INCAR file,                     |
|      a different type was found on the POTCAR file                          |
|          I HOPE YOU KNOW, WHAT YOU ARE  DOING                               |
|                                                                             |
 ----------------------------------------------------------------------------- 

  PAW_PBE Mg 13Apr2007                  :
 energy of atom  1       EATOM=  -23.0369
 kinetic energy error for atom=    0.0000 (will be added to EATOM!!)
  PAW_PBE O 08Apr2002                   :
 energy of atom  2       EATOM= -432.3788
 kinetic energy error for atom=    0.0208 (will be added to EATOM!!)
  PAW_PBE H 15Jun2001                   :
 energy of atom  3       EATOM=  -12.4884
 kinetic energy error for atom=    0.0014 (will be added to EATOM!!)
 
 
 POSCAR: Mg   O    H                             
  positions in direct lattice
  velocities in cartesian coordinates
 exchange correlation table for  LEXCH =       42
   RHO(1)=    0.500       N(1)  =     2000
   RHO(2)=  100.500       N(2)  =     4000

 VTST: version 3.2, (02/03/18)

 CHAIN: initializing optimizer
 
 OPT: Using VASP Dynamics algorithm
 CHAIN: Read ICHAIN            0
 
 POSCAR: Mg   O    H                             
  positions in direct lattice
  velocities in cartesian coordinates
 


--------------------------------------------------------------------------------------------------------


 ion  position               nearest neighbor table
   1  0.000  0.000  0.000-   7 3.19  25 3.19  19 3.19  10 3.19   4 3.19  13 3.19  44 3.19  32 3.19
                            28 3.19
   2  0.999  0.001  0.158-  33 3.08  45 3.12  29 3.13  28 3.14  44 3.14  32 3.15  14 3.18   5 3.18
                            20 3.18  26 3.18  11 3.19   8 3.20
   3  0.993  0.999  0.329-  46 2.19   9 3.20  21 3.21  27 3.23  12 3.25   6 3.26  15 3.27  45 3.53
                            29 3.55  33 3.61
   4  0.000  0.333  0.000-  22 3.19  13 3.19  19 3.19  16 3.19   1 3.19   7 3.19  40 3.19  30 3.19
                            28 3.19
   5  1.000  0.334  0.157-  30 3.12  40 3.13  28 3.13  41 3.14  29 3.17  31 3.17   8 3.18  14 3.18
                             2 3.18  17 3.18  20 3.19  23 3.19
   6  0.998  0.337  0.311-  31 3.06  29 3.08  41 3.09  15 3.17  21 3.18   9 3.20  18 3.24  24 3.26
                             3 3.26
   7  0.000  0.667  0.000-   1 3.19  10 3.19  25 3.19  16 3.19  22 3.19   4 3.19  42 3.19  32 3.19
                            30 3.19
   8  0.999  0.667  0.157-  42 3.12  33 3.12  32 3.12  30 3.13  31 3.15  43 3.16  23 3.18   5 3.18
                            26 3.18  17 3.18   2 3.20  11 3.20
   9  0.998  0.672  0.313-  43 3.13  33 3.14  31 3.15  12 3.17   6 3.20   3 3.20  18 3.21  27 3.22
                            24 3.26
  10  0.333  0.000  0.000-  16 3.19   7 3.19  19 3.19   1 3.19  22 3.19  13 3.19  32 3.19  34 3.19
                            38 3.19
  11  0.333  0.001  0.157-  34 3.12  32 3.12  38 3.13  33 3.14  39 3.16  35 3.18  20 3.18  17 3.18
                            23 3.18  14 3.18   2 3.19   8 3.20
  12  0.329  0.004  0.309-  35 3.03  33 3.06  39 3.07   9 3.17  15 3.20  21 3.21  24 3.23   3 3.25
                            18 3.26
  13  0.333  0.333  0.000-  22 3.19   4 3.19  10 3.19   1 3.19  25 3.19  16 3.19  28 3.19  36 3.19
                            34 3.19
  14  0.332  0.333  0.157-  28 3.12  36 3.12  37 3.12  34 3.13  35 3.14  29 3.17   2 3.18   5 3.18
                            11 3.18  23 3.18  26 3.19  17 3.19
  15  0.330  0.339  0.314-  29 3.14  27 3.16  37 3.17   6 3.17  35 3.18  12 3.20  18 3.22  24 3.22
                             3 3.27
  16  0.333  0.667  0.000-  10 3.19  19 3.19   7 3.19  25 3.19   4 3.19  13 3.19  38 3.19  30 3.19
                            36 3.19
  17  0.332  0.668  0.158-  37 3.09  39 3.12  31 3.12  38 3.14  30 3.14  36 3.15  11 3.18   8 3.18
                             5 3.18  20 3.18  26 3.19  14 3.19
  18  0.328  0.670  0.331-  51 2.17   9 3.21  15 3.22   6 3.24  27 3.25  21 3.25  12 3.26  31 3.57
                            39 3.58  37 3.65
  19  0.667  0.000  0.000-  25 3.19  16 3.19   1 3.19  10 3.19   4 3.19  22 3.19  38 3.19  44 3.19
                            40 3.19
  20  0.666  0.000  0.157-  38 3.12  40 3.12  44 3.13  41 3.14  45 3.14  39 3.16  11 3.18  17 3.18
                             2 3.18  26 3.18  23 3.19   5 3.19
  21  0.665  0.005  0.313-  39 3.12  41 3.13  45 3.15   6 3.18  27 3.19  12 3.21   3 3.21  24 3.21
                            18 3.25
  22  0.667  0.333  0.000-  13 3.19   4 3.19  10 3.19  25 3.19   7 3.19  19 3.19  34 3.19  42 3.19
                            40 3.19
  23  0.666  0.334  0.158-  41 3.09  35 3.12  43 3.12  34 3.14  42 3.14  40 3.15   8 3.18  11 3.18
                            26 3.18  14 3.18  20 3.19   5 3.19
  24  0.661  0.335  0.328-  49 2.15  21 3.21  15 3.22  12 3.23   6 3.26  27 3.26   9 3.26  35 3.50
                            43 3.52  41 3.56
  25  0.667  0.667  0.000-   1 3.19  19 3.19   7 3.19  16 3.19  22 3.19  13 3.19  36 3.19  42 3.19
                            44 3.19
  26  0.666  0.668  0.157-  44 3.12  36 3.12  42 3.13  37 3.14  43 3.16  45 3.17   8 3.18  23 3.18
                             2 3.18  20 3.18  17 3.19  14 3.19
  27  0.661  0.669  0.310-  45 3.05  37 3.06  43 3.08  15 3.16  21 3.19   9 3.22   3 3.23  18 3.25
                            24 3.26
  28  0.111  0.222  0.080-  14 3.12   5 3.13   2 3.14  44 3.19  32 3.19  40 3.19  34 3.19  36 3.19
                            30 3.19   1 3.19  13 3.19   4 3.19
  29  0.109  0.220  0.236-   6 3.08   2 3.13  45 3.14  15 3.14  33 3.15  14 3.17   5 3.17  35 3.18
                            37 3.19  41 3.22  31 3.23   3 3.55
  30  0.111  0.556  0.080-   5 3.12   8 3.13  17 3.14  32 3.19  42 3.19  38 3.19  40 3.19  36 3.19
                            28 3.19  16 3.19   7 3.19   4 3.19
  31  0.113  0.560  0.236-   6 3.06  17 3.12  39 3.13  37 3.14   9 3.15   8 3.15   5 3.17  33 3.18
                            43 3.19  41 3.22  29 3.23  18 3.57
  32  0.111  0.889  0.080-   8 3.12  11 3.12   2 3.15  28 3.19  34 3.19  44 3.19  30 3.19  42 3.19
                            38 3.19  10 3.19   1 3.19   7 3.19
  33  0.107  0.890  0.234-  12 3.06   2 3.08   8 3.12  11 3.14   9 3.14  29 3.15  45 3.15  31 3.18
                            43 3.19  39 3.22  35 3.24   3 3.61
  34  0.444  0.222  0.080-  11 3.12  14 3.13  23 3.14  38 3.19  40 3.19  32 3.19  42 3.19  28 3.19
                            36 3.19  22 3.19  10 3.19  13 3.19
  35  0.447  0.228  0.236-  12 3.03  23 3.12  43 3.13  14 3.14  41 3.15  37 3.17  11 3.18  15 3.18
                            29 3.18  33 3.24  39 3.24  24 3.50
  36  0.444  0.556  0.080-  26 3.12  14 3.12  17 3.15  42 3.19  38 3.19  44 3.19  30 3.19  28 3.19
                            34 3.19  25 3.19  13 3.19  16 3.19
  37  0.440  0.556  0.234-  27 3.06  17 3.09  14 3.12  26 3.14  31 3.14  39 3.14  15 3.17  35 3.17
                            29 3.19  43 3.22  45 3.24  18 3.65
  38  0.444  0.889  0.080-  20 3.12  11 3.13  17 3.14  40 3.19  34 3.19  44 3.19  36 3.19  30 3.19
                            32 3.19  19 3.19  16 3.19  10 3.19
  39  0.443  0.887  0.236-  12 3.07  17 3.12  21 3.12  31 3.13  37 3.14  20 3.16  11 3.16  45 3.19
                            41 3.20  33 3.22  35 3.24  18 3.58
  40  0.778  0.222  0.080-  20 3.12   5 3.13  23 3.15  38 3.19  34 3.19  44 3.19  28 3.19  30 3.19
                            42 3.19   4 3.19  19 3.19  22 3.19
  41  0.774  0.224  0.235-   6 3.09  23 3.09  21 3.13  20 3.14  43 3.14   5 3.14  35 3.15  45 3.18
                            39 3.20  29 3.22  31 3.22  24 3.56
  42  0.778  0.556  0.080-   8 3.12  26 3.13  23 3.14  36 3.19  44 3.19  30 3.19  32 3.19  34 3.19
                            40 3.19  25 3.19   7 3.19  22 3.19
  43  0.776  0.554  0.236-  27 3.08  23 3.12   9 3.13  35 3.13  41 3.14   8 3.16  26 3.16  33 3.19
                            31 3.19  37 3.22  45 3.23  24 3.52
  44  0.778  0.889  0.080-  26 3.12  20 3.13   2 3.14  28 3.19  40 3.19  42 3.19  32 3.19  38 3.19
                            36 3.19   1 3.19  19 3.19  25 3.19
  45  0.780  0.894  0.236-  27 3.05   2 3.12  29 3.14  20 3.14  21 3.15  33 3.15  26 3.17  41 3.18
                            39 3.19  43 3.23  37 3.24   3 3.53
  46  0.970  0.983  0.396-  53 0.99  52 0.99   3 2.19
  47  0.253  0.947  0.413-  54 0.98  55 1.00
  48  0.892  0.237  0.412-  56 0.98  57 1.00
  49  0.653  0.339  0.394-  59 0.99  58 0.99  24 2.15
  50  0.618  0.611  0.413-  60 0.98  61 1.00
  51  0.321  0.688  0.397-  63 0.98  62 0.99  18 2.17
  52  0.952  0.067  0.409-  46 0.99
  53  0.061  0.983  0.411-  46 0.99
  54  0.354  0.051  0.416-  47 0.98
  55  0.233  0.936  0.383-  47 1.00
  56  0.997  0.338  0.411-  48 0.98
  57  0.865  0.213  0.382-  48 1.00
  58  0.655  0.435  0.406-  49 0.99
  59  0.733  0.320  0.408-  49 0.99
  60  0.719  0.714  0.410-  50 0.98
  61  0.569  0.590  0.385-  50 1.00
  62  0.304  0.775  0.408-  51 0.99
  63  0.406  0.685  0.413-  51 0.98
 
  LATTYP: Found a hexagonal cell.
 ALAT       =     9.5557527542
 C/A-ratio  =     3.4141837076
  
  Lattice vectors:
  
 A1 = (   9.5557527542,   0.0000000000,   0.0000000000)
 A2 = (  -4.7778763771,   8.2755246374,   0.0000000000)
 A3 = (   0.0000000000,   0.0000000000,  32.6250953674)


Analysis of symmetry for initial positions (statically):
=====================================================================
 Subroutine PRICEL returns:
 Original cell was already a primitive cell.
 

 Routine SETGRP: Setting up the symmetry group for a 
 hexagonal supercell.


 Subroutine GETGRP returns: Found  1 space group operations
 (whereof  1 operations were pure point group operations)
 out of a pool of 24 trial point group operations.


The static configuration has the point symmetry C_1 .


Analysis of symmetry for dynamics (positions and initial velocities):
=====================================================================
 Subroutine PRICEL returns:
 Original cell was already a primitive cell.
 

 Routine SETGRP: Setting up the symmetry group for a 
 hexagonal supercell.


 Subroutine GETGRP returns: Found  1 space group operations
 (whereof  1 operations were pure point group operations)
 out of a pool of 24 trial point group operations.


The dynamic configuration has the point symmetry C_1 .


Analysis of constrained symmetry for selective dynamics:
=====================================================================
 Subroutine PRICEL returns:
 Original cell was already a primitive cell.
 

 Routine SETGRP: Setting up the symmetry group for a 
 hexagonal supercell.


 Subroutine GETGRP returns: Found  1 space group operations
 (whereof  1 operations were pure point group operations)
 out of a pool of 24 trial point group operations.


The constrained configuration has the point symmetry C_1 .


 Subroutine INISYM returns: Found  1 space group operations
 (whereof  1 operations are pure point group operations),
 and found     1 'primitive' translations

 
 
 KPOINTS: Auto                                    

Automatic generation of k-mesh.
Space group operators:
 irot       det(A)        alpha          n_x          n_y          n_z        tau_x        tau_y        tau_z
    1     1.000000     0.000000     1.000000     0.000000     0.000000     0.000000     0.000000     0.000000
 
 Subroutine IBZKPT returns following result:
 ===========================================
 
 Found      5 irreducible k-points:
 
 Following reciprocal coordinates:
            Coordinates               Weight
  0.000000  0.000000  0.000000      1.000000
  0.333333 -0.000000  0.000000      2.000000
  0.000000  0.333333  0.000000      2.000000
  0.333333  0.333333  0.000000      2.000000
 -0.333333  0.333333  0.000000      2.000000
 
 Following cartesian coordinates:
            Coordinates               Weight
  0.000000  0.000000  0.000000      1.000000
  0.034883  0.020140  0.000000      2.000000
  0.000000  0.040279  0.000000      2.000000
  0.034883  0.060419  0.000000      2.000000
 -0.034883  0.020140  0.000000      2.000000
 
 TETIRR: Found     24 inequivalent tetrahedra from       54


--------------------------------------------------------------------------------------------------------




 Dimension of arrays:
   k-points           NKPTS =      5   k-points in BZ     NKDIM =      5   number of bands    NBANDS=    102
   number of dos      NEDOS =    301   number of ions     NIONS =     63
   non local maximal  LDIM  =      5   non local SUM 2l+1 LMDIM =     13
   total plane-waves  NPLWV = ******
   max r-space proj   IRMAX =   4509   max aug-charges    IRDMAX=  21536
   dimension x,y,z NGX =    72 NGY =   72 NGZ =  250
   dimension x,y,z NGXF=   144 NGYF=  144 NGZF=  500
   support grid    NGXF=   144 NGYF=  144 NGZF=  500
   ions per type =              45   6  12
   NGX,Y,Z   is equivalent  to a cutoff of  12.53, 12.53, 12.74 a.u.
   NGXF,Y,Z  is equivalent  to a cutoff of  25.05, 25.05, 25.48 a.u.

 SYSTEM =  Mg_slab_in_a_box                        
 POSCAR =  Mg   O    H                             

 Startparameter for this run:
   NWRITE =      2    write-flag & timer
   PREC   = accura    normal or accurate (medium, high low for compatibility)
   ISTART =      0    job   : 0-new  1-cont  2-samecut
   ICHARG =      2    charge: 1-file 2-atom 10-const
   ISPIN  =      1    spin polarized calculation?
   LNONCOLLINEAR =      F non collinear calculations
   LSORBIT =      F    spin-orbit coupling
   INIWAV =      1    electr: 0-lowe 1-rand  2-diag
   LASPH  =      T    aspherical Exc in radial PAW
   METAGGA=      F    non-selfconsistent MetaGGA calc.

 Electronic Relaxation 1
   ENCUT  =  520.0 eV  38.22 Ry    6.18 a.u.  17.77 17.77 60.66*2*pi/ulx,y,z
   ENINI  =  520.0     initial cutoff
   ENAUG  =  605.4 eV  augmentation charge cutoff
   NELM   =    300;   NELMIN=  6; NELMDL=-12     # of ELM steps 
   EDIFF  = 0.5E-05   stopping-criterion for ELM
   LREAL  =      T    real-space projection
   NLSPLINE    = F    spline interpolate recip. space projectors
   LCOMPAT=      F    compatible to vasp.4.4
   GGA_COMPAT  = T    GGA compatible to vasp.4.4-vasp.4.6
   LMAXPAW     = -100 max onsite density
   LMAXMIX     =    2 max onsite mixed and CHGCAR
   VOSKOWN=      0    Vosko Wilk Nusair interpolation
   ROPT   =   -0.00025  -0.00025  -0.00025
 Ionic relaxation
   EDIFFG = 0.5E-04   stopping-criterion for IOM
   NSW    =      0    number of steps for IOM
   NBLOCK =      1;   KBLOCK =      1    inner block; outer block 
   IBRION =     -1    ionic relax: 0-MD 1-quasi-New 2-CG
   NFREE  =      0    steps in history (QN), initial steepest desc. (CG)
   ISIF   =      2    stress and relaxation
   IWAVPR =     10    prediction:  0-non 1-charg 2-wave 3-comb
   ISYM   =      2    0-nonsym 1-usesym 2-fastsym
   LCORR  =      T    Harris-Foulkes like correction to forces

   POTIM  = 0.5000    time-step for ionic-motion
   TEIN   =    0.0    initial temperature
   TEBEG  =    0.0;   TEEND  =   0.0 temperature during run
   SMASS  =  -3.00    Nose mass-parameter (am)
   estimated Nose-frequenzy (Omega)   =  0.10E-29 period in steps =****** mass=  -0.209E-26a.u.
   SCALEE = 1.0000    scale energy and forces
   NPACO  =    256;   APACO  = 16.0  distance and # of slots for P.C.
   PSTRESS=    0.0 pullay stress

  Mass of Ions in am
   POMASS =  24.30 16.00  1.00
  Ionic Valenz
   ZVAL   =   2.00  6.00  1.00
  Atomic Wigner-Seitz radii
   RWIGS  =  -1.00 -1.00 -1.00
  virtual crystal weights 
   VCA    =   1.00  1.00  1.00
   NELECT =     138.0000    total number of electrons
   NUPDOWN=      -1.0000    fix difference up-down

 DOS related values:
   EMIN   =  10.00;   EMAX   =-10.00  energy-range for DOS
   EFERMI =   0.00
   ISMEAR =    -5;   SIGMA  =   0.20  broadening in eV -4-tet -1-fermi 0-gaus

 Electronic relaxation 2 (details)
   IALGO  =     48    algorithm
   LDIAG  =      T    sub-space diagonalisation (order eigenvalues)
   LSUBROT=      F    optimize rotation matrix (better conditioning)
   TURBO    =      0    0=normal 1=particle mesh
   IRESTART =      0    0=no restart 2=restart with 2 vectors
   NREBOOT  =      0    no. of reboots
   NMIN     =      0    reboot dimension
   EREF     =   0.00    reference energy to select bands
   IMIX   =      4    mixing-type and parameters
     AMIX     =   0.40;   BMIX     =  1.00
     AMIX_MAG =   1.60;   BMIX_MAG =  1.00
     AMIN     =   0.10
     WC   =   100.;   INIMIX=   1;  MIXPRE=   1;  MAXMIX= -45

 Intra band minimization:
   WEIMIN = 0.0000     energy-eigenvalue tresh-hold
   EBREAK =  0.12E-07  absolut break condition
   DEPER  =   0.30     relativ break condition  

   TIME   =   0.40     timestep for ELM

  volume/ion in A,a.u.               =      40.95       276.36
  Fermi-wavevector in a.u.,A,eV,Ry     =   0.616828  1.165635  5.176694  0.380476
  Thomas-Fermi vector in A             =   1.674695
 
 Write flags
   LWAVE        =      F    write WAVECAR
   LDOWNSAMPLE  =      F    k-point downsampling of WAVECAR
   LCHARG       =      T    write CHGCAR
   LVTOT        =      F    write LOCPOT, total local potential
   LVHAR        =      T    write LOCPOT, Hartree potential only
   LELF         =      F    write electronic localiz. function (ELF)
   LORBIT       =      0    0 simple, 1 ext, 2 COOP (PROOUT), +10 PAW based schemes


 Dipole corrections
   LMONO  =      F    monopole corrections only (constant potential shift)
   LDIPOL =      T    correct potential (dipole corrections)
   IDIPOL =      3    1-x, 2-y, 3-z, 4-all directions 
   EPSILON=  1.0000000 bulk dielectric constant

 Exchange correlation treatment:
   GGA     =    BO    GGA type
   LEXCH   =    42    internal setting for exchange type
   VOSKOWN=      0    Vosko Wilk Nusair interpolation
   LHFCALC =     F    Hartree Fock is set to
   LHFONE  =     F    Hartree Fock one center treatment
   AEXX    =    0.0000 exact exchange contribution

 vdW DFT:
   LUSE_VDW   =     T    switch on vdW DFT
   Zab_VDW    =-.8491    correlation parameter
   PARAM1     =0.1833
   PARAM2     =0.2200
   PARAM3     =0.0000
   -- rVV10 --
   BPARAM     = 6.3000
   CPARAM     = 0.0093

 Linear response parameters
   LEPSILON=     F    determine dielectric tensor
   LRPA    =     F    only Hartree local field effects (RPA)
   LNABLA  =     F    use nabla operator in PAW spheres
   LVEL    =     F    velocity operator in full k-point grid
   LINTERFAST=   F  fast interpolation
   KINTER  =     0    interpolate to denser k-point grid
   CSHIFT  =0.1000    complex shift for real part using Kramers Kronig
   OMEGAMAX=  -1.0    maximum frequency
   DEG_THRESHOLD= 0.2000000E-02 threshold for treating states as degnerate
   RTIME   =   -0.100 relaxation time in fs
  (WPLASMAI=    0.000 imaginary part of plasma frequency in eV, 0.658/RTIME)
   DFIELD  = 0.0000000 0.0000000 0.0000000 field for delta impulse in time
 
 Orbital magnetization related:
   ORBITALMAG=     F  switch on orbital magnetization
   LCHIMAG   =     F  perturbation theory with respect to B field
   DQ        =  0.001000  dq finite difference perturbation B field
   LLRAUG    =     F  two centre corrections for induced B field



--------------------------------------------------------------------------------------------------------


 Static calculation
 charge density and potential will be updated during run
 non-spin polarized calculation
 RMM-DIIS sequential band-by-band
 perform sub-space diagonalisation
    before iterative eigenvector-optimisation
 modified Broyden-mixing scheme, WC =      100.0
 initial mixing is a Kerker type mixing with AMIX =  0.4000 and BMIX =      1.0000
 Hartree-type preconditioning will be used
 using additional bands           33
 real space projection scheme for non local part
 use partial core corrections
 calculate Harris-corrections to forces 
   (improved forces if not selfconsistent)
 use gradient corrections 
 use of overlap-Matrix (Vanderbilt PP)
 Fermi weights with tetrahedron method with Bloechl corrections


--------------------------------------------------------------------------------------------------------


  energy-cutoff  :      520.00
  volume of cell :     2579.96
      direct lattice vectors                 reciprocal lattice vectors
     9.555752754  0.000000000  0.000000000     0.104649003  0.060419130  0.000000000
    -4.777876377  8.275524637  0.000000000     0.000000000  0.120838260  0.000000000
     0.000000000  0.000000000 32.625095367     0.000000000  0.000000000  0.030651251

  length of vectors
     9.555752754  9.555752754 32.625095367     0.120838260  0.120838260  0.030651251


 
 k-points in units of 2pi/SCALE and weight: Auto                                    
   0.00000000  0.00000000  0.00000000       0.111
   0.03488300  0.02013971  0.00000000       0.222
   0.00000000  0.04027942  0.00000000       0.222
   0.03488300  0.06041913  0.00000000       0.222
  -0.03488300  0.02013971  0.00000000       0.222
 
 k-points in reciprocal lattice and weights: Auto                                    
   0.00000000  0.00000000  0.00000000       0.111
   0.33333333 -0.00000000  0.00000000       0.222
   0.00000000  0.33333333  0.00000000       0.222
   0.33333333  0.33333333  0.00000000       0.222
  -0.33333333  0.33333333  0.00000000       0.222
 
 position of ions in fractional coordinates (direct lattice) 
   0.00000000  0.00000000  0.00000000
   0.99899185  0.00119768  0.15789616
   0.99306206  0.99921902  0.32926484
   0.00000001  0.33333336  0.00000000
   0.99973003  0.33440155  0.15731866
   0.99755230  0.33716000  0.31071416
   0.00000002  0.66666672  0.00000000
   0.99879142  0.66674227  0.15715877
   0.99825271  0.67184946  0.31323403
   0.33333334  0.00000000  0.00000000
   0.33322267  0.00107267  0.15720447
   0.32868480  0.00374951  0.30932831
   0.33333335  0.33333336  0.00000000
   0.33209461  0.33347254  0.15718829
   0.32965415  0.33891853  0.31430230
   0.33333336  0.66666672  0.00000000
   0.33225816  0.66784871  0.15789653
   0.32849135  0.67020213  0.33059163
   0.66666668  0.00000000  0.00000000
   0.66559919  0.00048475  0.15719747
   0.66461765  0.00468667  0.31305873
   0.66666668  0.33333336  0.00000000
   0.66564839  0.33431608  0.15800007
   0.66088630  0.33473180  0.32807676
   0.66666670  0.66666672  0.00000000
   0.66636733  0.66768800  0.15721776
   0.66051992  0.66937957  0.30962753
   0.11111113  0.22222222  0.07982145
   0.10933462  0.22008250  0.23608005
   0.11111114  0.55555561  0.07982145
   0.11317572  0.56033880  0.23580006
   0.11111116  0.88888894  0.07982145
   0.10703929  0.88971099  0.23431260
   0.44444450  0.22222222  0.07982145
   0.44652352  0.22801047  0.23577138
   0.44444450  0.55555561  0.07982145
   0.43982774  0.55624245  0.23447035
   0.44444451  0.88888894  0.07982145
   0.44276843  0.88677301  0.23574643
   0.77777779  0.22222222  0.07982145
   0.77441667  0.22418349  0.23487016
   0.77777781  0.55555561  0.07982145
   0.77607049  0.55385315  0.23576063
   0.77777784  0.88888894  0.07982145
   0.77960815  0.89357400  0.23552554
   0.96978134  0.98283688  0.39623890
   0.25295206  0.94732145  0.41339352
   0.89232087  0.23712003  0.41222010
   0.65341328  0.33906356  0.39393672
   0.61758675  0.61102970  0.41336512
   0.32081619  0.68775617  0.39668626
   0.95155706  0.06682072  0.40876027
   0.06088726  0.98303353  0.41058931
   0.35360191  0.05137418  0.41578236
   0.23346845  0.93562488  0.38307115
   0.99667938  0.33807721  0.41141670
   0.86451484  0.21303665  0.38241501
   0.65467437  0.43507543  0.40609440
   0.73331732  0.32016445  0.40828508
   0.71930557  0.71366926  0.40995952
   0.56863818  0.58999020  0.38548999
   0.30435310  0.77506720  0.40780805
   0.40619131  0.68534361  0.41278765
 
 position of ions in cartesian coordinates  (Angst):
   0.00000000  0.00000000  0.00000000
   9.54039674  0.00991146  5.15137739
   4.71531054  8.26906160 10.74229685
  -1.59262550  2.75850844  0.00000000
   7.95544366  2.76734830  5.13253643
   7.92145433  2.79017587 10.13707916
  -3.18525100  5.51701689  0.00000000
   6.35859173  5.51764205  5.12732002
   6.32904242  5.55990675 10.21929024
   3.18525100  0.00000000  0.00000000
   3.17906839  0.00887689  5.12881073
   3.12291601  0.03102917 10.09186563
   1.59262550  2.75850844  0.00000000
   1.58012348  2.75966018  5.12828281
   1.53078275  2.80472865 10.25414260
  -0.00000001  5.51701689  0.00000000
  -0.01592174  5.52679846  5.15138921
  -0.06316079  5.54627426 10.78558337
   6.37050200  0.00000000  0.00000000
   6.35798523  0.00401154  5.12858239
   6.32852964  0.03878461 10.21357104
   4.77787638  2.75850844  0.00000000
   4.76345050  2.76664093  5.15476750
   4.71595895  2.77008126 10.70353570
   3.18525100  5.51701689  0.00000000
   3.17751071  5.52546851  5.12924429
   3.11355221  5.53946714 10.10162768
   0.00000017  1.83900547  2.60418248
  -0.00675234  1.82129812  7.70213421
  -1.59262550  4.59751415  2.60418248
  -1.59575030  4.63709757  7.69299953
  -3.18525076  7.35602236  2.60418248
  -3.22808813  7.36282522  7.64447090
   3.18525147  1.83900547  2.60418248
   3.17746250  1.88690630  7.69206361
   1.59262574  4.59751415  2.60418248
   1.54522754  4.60319807  7.64961756
   0.00000039  7.35602236  2.60418248
  -0.00590621  7.33851192  7.69124960
   6.37050200  1.83900547  2.60418248
   6.32901320  1.85523601  7.66266152
   4.77787638  4.59751415  2.60418248
   4.76969582  4.58342541  7.69171310
   3.18525124  7.35602236  2.60418248
   3.18035656  7.39479368  7.68404323
   4.57111762  8.13349085 12.92733204
  -2.10903741  7.83958202 13.48700315
   7.39386744  1.96229267 13.44871996
   4.62385196  2.80592886 12.85222301
   2.98208192  5.05659132 13.48607642
  -0.22037373  5.69154315 12.94192716
   8.77358285  0.55297654 13.33584271
  -4.11498904  8.13511820 13.39551546
   3.13347289  0.42514832 13.56493904
  -2.23933321  7.74278675 12.49773282
   7.90873064  2.79776628 13.42250915
   7.24322722  1.76299008 12.47632631
   4.17716976  3.60047746 13.24886850
   5.47769287  2.64952876 13.32033976
   3.46368272  5.90598755 13.37496848
   2.61486560  4.88247847 12.57664773
  -0.79485227  6.41408768 13.30477644
   0.60697670  5.67157790 13.46723656
 


--------------------------------------------------------------------------------------------------------


 k-point  1 :   0.0000 0.0000 0.0000  plane waves:   69403
 k-point  2 :   0.3333-0.0000 0.0000  plane waves:   69509
 k-point  3 :   0.0000 0.3333 0.0000  plane waves:   69509
 k-point  4 :   0.3333 0.3333 0.0000  plane waves:   69474
 k-point  5 :  -0.3333 0.3333 0.0000  plane waves:   69509

 maximum and minimum number of plane-waves per node :      2924     2870

 maximum number of plane-waves:     69509
 maximum index in each direction: 
   IXMAX=   18   IYMAX=   17   IZMAX=   60
   IXMIN=  -18   IYMIN=  -18   IZMIN=  -60


 real space projection operators:
  total allocation   :      22586.10 KBytes
  max/ min on nodes  :       1303.02        526.37


 parallel 3D FFT for wavefunctions:
    minimum data exchange during FFTs selected (reduces bandwidth)
 parallel 3D FFT for charge:
    minimum data exchange during FFTs selected (reduces bandwidth)


 total amount of memory used by VASP MPI-rank0    62219. kBytes
=======================================================================

   base      :      30000. kBytes
   nonlr-proj:       6316. kBytes
   fftplans  :       6459. kBytes
   grid      :      11407. kBytes
   one-center:         24. kBytes
   wavefun   :       8013. kBytes
 
     INWAV:  cpu time    0.0001: real time    0.0072
 Broyden mixing: mesh for mixing (old mesh)
   NGX = 35   NGY = 35   NGZ =121
  (NGX  =144   NGY  =144   NGZ  =500)
  gives a total of 148225 points

 initial charge density was supplied:
 charge density of overlapping atoms calculated
 number of electron     138.0000000 magnetization 
 keeping initial charge density in first step


--------------------------------------------------------------------------------------------------------


 Maximum index for non-local projection operator          300
 Maximum index for augmentation-charges          837 (set IRDMAX)


--------------------------------------------------------------------------------------------------------


 First call to EWALD:  gamma=   0.129
 Maximum number of real-space cells 4x 4x 1
 Maximum number of reciprocal cells 2x 2x 6

    FEWALD:  cpu time    0.0030: real time    0.0030


--------------------------------------- Iteration      1(   1)  ---------------------------------------


vdW kernel read from vdw_kernel.bindat
  0.0000  0.2424  0.5071  0.7962  1.1119  1.4567  1.8333  2.2446  2.6937  3.1842
  3.7199  4.3049  4.9438  5.6415  6.4036  7.2358  8.1446  9.1372 10.2212 11.4050
 12.6979 14.1099 15.6519 17.3360 19.1751 21.1837 23.3773 25.7729 28.3892 31.2465
 34.3669 37.7748 41.4965 45.5611 50.0000
 
    POTLOK:  cpu time    5.3375: real time    5.5323
    SETDIJ:  cpu time    0.1355: real time    0.1355
    EDDIAG:  cpu time    0.4812: real time    0.4821
  RMM-DIIS:  cpu time    1.0524: real time    1.0530
    ORTHCH:  cpu time    0.0705: real time    0.0705
 BZINTS: Fermi energy:  9.561279;138.000000 electrons
         Band energy: 211.793952;  BLOECHL correction: -0.153526
       DOS:  cpu time    0.0031: real time    0.0031
    --------------------------------------------
      LOOP:  cpu time    7.0801: real time    7.2765

 eigenvalue-minimisations  :   510
 total energy-change (2. order) : 0.1242686E+04  (-0.2791145E+04)
 number of electron     138.0000000 magnetization 
 augmentation part      138.0000000 magnetization 

 DIPCOR: dipole corrections for dipol
 direction  3 min pos   356,
 dipolmoment           0.000000      0.000000     -0.000400 electrons x Angstroem
 Tr[quadrupol]     -1866.789551

 energy correction for charged system         0.000000 eV
 dipol+quadrupol energy correction           -0.000000 eV
 added-field ion interaction          0.004250 eV  (added to PSCEN)


 Free energy of the ion-electron system (eV)
  ---------------------------------------------------
  alpha Z        PSCENC =        63.16531280
  Ewald energy   TEWEN  =     12561.86744252
  -Hartree energ DENC   =    -15787.20230982
  -exchange      EXHF   =         0.00000000
  -V(xc)+E(xc)   XCENC  =     -2051.07146346
  PAW double counting   =      5135.15659847    -2719.01140655
  entropy T*S    EENTRO =         0.00000000
  eigenvalues    EBANDS =       211.79395199
  atomic energy  EATOM  =      3827.98814510
  Solvation  Ediel_sol  =         0.00000000
  ---------------------------------------------------
  free energy    TOTEN  =      1242.68627105 eV

  energy without entropy =     1242.68627105  energy(sigma->0) =     1242.68627105


--------------------------------------------------------------------------------------------------------




--------------------------------------- Iteration      1(   2)  ---------------------------------------


    EDDIAG:  cpu time    0.4833: real time    0.5069
  RMM-DIIS:  cpu time    1.0462: real time    1.0465
    ORTHCH:  cpu time    0.0721: real time    0.0721
 BZINTS: Fermi energy:  2.146728;138.000000 electrons
         Band energy:-486.107384;  BLOECHL correction: -0.239304
       DOS:  cpu time    0.0032: real time    0.0032
    --------------------------------------------
      LOOP:  cpu time    1.6048: real time    1.6287

 eigenvalue-minimisations  :   510
 total energy-change (2. order) :-0.6979013E+03  (-0.7549494E+03)
 number of electron     138.0000000 magnetization 
 augmentation part      138.0000000 magnetization 

 DIPCOR: dipole corrections for dipol
 direction  3 min pos   356,
 dipolmoment           0.000000      0.000000     -0.000400 electrons x Angstroem
 Tr[quadrupol]     -1866.789551

 energy correction for charged system         0.000000 eV
 dipol+quadrupol energy correction           -0.000000 eV
 added-field ion interaction          0.004250 eV  (added to PSCEN)


 Free energy of the ion-electron system (eV)
  ---------------------------------------------------
  alpha Z        PSCENC =        63.16531280
  Ewald energy   TEWEN  =     12561.86744252
  -Hartree energ DENC   =    -15787.20230982
  -exchange      EXHF   =         0.00000000
  -V(xc)+E(xc)   XCENC  =     -2051.07146346
  PAW double counting   =      5135.15659847    -2719.01140655
  entropy T*S    EENTRO =         0.00000000
  eigenvalues    EBANDS =      -486.10738421
  atomic energy  EATOM  =      3827.98814510
  Solvation  Ediel_sol  =         0.00000000
  ---------------------------------------------------
  free energy    TOTEN  =       544.78493485 eV

  energy without entropy =      544.78493485  energy(sigma->0) =      544.78493485


--------------------------------------------------------------------------------------------------------




--------------------------------------- Iteration      1(   3)  ---------------------------------------


    EDDIAG:  cpu time    0.4848: real time    0.5088
  RMM-DIIS:  cpu time    1.0461: real time    1.0463
    ORTHCH:  cpu time    0.0723: real time    0.0723
 BZINTS: Fermi energy:  0.299506;138.000000 electrons
         Band energy:-719.665806;  BLOECHL correction: -0.423818
       DOS:  cpu time    0.0032: real time    0.0032
    --------------------------------------------
      LOOP:  cpu time    1.6064: real time    1.6306

 eigenvalue-minimisations  :   510
 total energy-change (2. order) :-0.2335584E+03  (-0.2981595E+03)
 number of electron     138.0000000 magnetization 
 augmentation part      138.0000000 magnetization 

 DIPCOR: dipole corrections for dipol
 direction  3 min pos   356,
 dipolmoment           0.000000      0.000000     -0.000400 electrons x Angstroem
 Tr[quadrupol]     -1866.789551

 energy correction for charged system         0.000000 eV
 dipol+quadrupol energy correction           -0.000000 eV
 added-field ion interaction          0.004250 eV  (added to PSCEN)


 Free energy of the ion-electron system (eV)
  ---------------------------------------------------
  alpha Z        PSCENC =        63.16531280
  Ewald energy   TEWEN  =     12561.86744252
  -Hartree energ DENC   =    -15787.20230982
  -exchange      EXHF   =         0.00000000
  -V(xc)+E(xc)   XCENC  =     -2051.07146346
  PAW double counting   =      5135.15659847    -2719.01140655
  entropy T*S    EENTRO =         0.00000000
  eigenvalues    EBANDS =      -719.66580584
  atomic energy  EATOM  =      3827.98814510
  Solvation  Ediel_sol  =         0.00000000
  ---------------------------------------------------
  free energy    TOTEN  =       311.22651322 eV

  energy without entropy =      311.22651322  energy(sigma->0) =      311.22651322


--------------------------------------------------------------------------------------------------------




--------------------------------------- Iteration      1(   4)  ---------------------------------------


    EDDIAG:  cpu time    0.4896: real time    0.5083
  RMM-DIIS:  cpu time    1.0512: real time    1.0515
    ORTHCH:  cpu time    0.0712: real time    0.0713
 BZINTS: Fermi energy: -0.743490;138.000000 electrons
         Band energy:-895.429873;  BLOECHL correction: -0.093980
       DOS:  cpu time    0.0030: real time    0.0030
    --------------------------------------------
      LOOP:  cpu time    1.6152: real time    1.6341

 eigenvalue-minimisations  :   510
 total energy-change (2. order) :-0.1757641E+03  (-0.1507910E+03)
 number of electron     138.0000000 magnetization 
 augmentation part      138.0000000 magnetization 

 DIPCOR: dipole corrections for dipol
 direction  3 min pos   356,
 dipolmoment           0.000000      0.000000     -0.000400 electrons x Angstroem
 Tr[quadrupol]     -1866.789551

 energy correction for charged system         0.000000 eV
 dipol+quadrupol energy correction           -0.000000 eV
 added-field ion interaction          0.004250 eV  (added to PSCEN)


 Free energy of the ion-electron system (eV)
  ---------------------------------------------------
  alpha Z        PSCENC =        63.16531280
  Ewald energy   TEWEN  =     12561.86744252
  -Hartree energ DENC   =    -15787.20230982
  -exchange      EXHF   =         0.00000000
  -V(xc)+E(xc)   XCENC  =     -2051.07146346
  PAW double counting   =      5135.15659847    -2719.01140655
  entropy T*S    EENTRO =         0.00000000
  eigenvalues    EBANDS =      -895.42987350
  atomic energy  EATOM  =      3827.98814510
  Solvation  Ediel_sol  =         0.00000000
  ---------------------------------------------------
  free energy    TOTEN  =       135.46244556 eV

  energy without entropy =      135.46244556  energy(sigma->0) =      135.46244556


--------------------------------------------------------------------------------------------------------




--------------------------------------- Iteration      1(   5)  ---------------------------------------


    EDDIAG:  cpu time    0.4878: real time    0.5102
  RMM-DIIS:  cpu time    1.0593: real time    1.0595
    ORTHCH:  cpu time    0.0709: real time    0.0709
 BZINTS: Fermi energy: -1.238476;138.000000 electrons
         Band energy:***********;  BLOECHL correction: -0.114430
       DOS:  cpu time    0.0034: real time    0.0034
    --------------------------------------------
      LOOP:  cpu time    1.6214: real time    1.6441

 eigenvalue-minimisations  :   510
 total energy-change (2. order) :-0.1176029E+03  (-0.9413463E+02)
 number of electron     138.0000000 magnetization 
 augmentation part      138.0000000 magnetization 

 DIPCOR: dipole corrections for dipol
 direction  3 min pos   356,
 dipolmoment           0.000000      0.000000     -0.000400 electrons x Angstroem
 Tr[quadrupol]     -1866.789551

 energy correction for charged system         0.000000 eV
 dipol+quadrupol energy correction           -0.000000 eV
 added-field ion interaction          0.004250 eV  (added to PSCEN)


 Free energy of the ion-electron system (eV)
  ---------------------------------------------------
  alpha Z        PSCENC =        63.16531280
  Ewald energy   TEWEN  =     12561.86744252
  -Hartree energ DENC   =    -15787.20230982
  -exchange      EXHF   =         0.00000000
  -V(xc)+E(xc)   XCENC  =     -2051.07146346
  PAW double counting   =      5135.15659847    -2719.01140655
  entropy T*S    EENTRO =         0.00000000
  eigenvalues    EBANDS =     -1013.03275188
  atomic energy  EATOM  =      3827.98814510
  Solvation  Ediel_sol  =         0.00000000
  ---------------------------------------------------
  free energy    TOTEN  =        17.85956718 eV

  energy without entropy =       17.85956718  energy(sigma->0) =       17.85956718


--------------------------------------------------------------------------------------------------------




--------------------------------------- Iteration      1(   6)  ---------------------------------------


    EDDIAG:  cpu time    0.4938: real time    0.5116
  RMM-DIIS:  cpu time    1.0710: real time    1.0713
    ORTHCH:  cpu time    0.0727: real time    0.0727
 BZINTS: Fermi energy: -1.365193;138.000000 electrons
         Band energy:***********;  BLOECHL correction: -0.041955
       DOS:  cpu time    0.0029: real time    0.0029
    --------------------------------------------
      LOOP:  cpu time    1.6404: real time    1.6586

 eigenvalue-minimisations  :   510
 total energy-change (2. order) :-0.6239442E+02  (-0.4783573E+02)
 number of electron     138.0000000 magnetization 
 augmentation part      138.0000000 magnetization 

 DIPCOR: dipole corrections for dipol
 direction  3 min pos   356,
 dipolmoment           0.000000      0.000000     -0.000400 electrons x Angstroem
 Tr[quadrupol]     -1866.789551

 energy correction for charged system         0.000000 eV
 dipol+quadrupol energy correction           -0.000000 eV
 added-field ion interaction          0.004250 eV  (added to PSCEN)


 Free energy of the ion-electron system (eV)
  ---------------------------------------------------
  alpha Z        PSCENC =        63.16531280
  Ewald energy   TEWEN  =     12561.86744252
  -Hartree energ DENC   =    -15787.20230982
  -exchange      EXHF   =         0.00000000
  -V(xc)+E(xc)   XCENC  =     -2051.07146346
  PAW double counting   =      5135.15659847    -2719.01140655
  entropy T*S    EENTRO =         0.00000000
  eigenvalues    EBANDS =     -1075.42717552
  atomic energy  EATOM  =      3827.98814510
  Solvation  Ediel_sol  =         0.00000000
  ---------------------------------------------------
  free energy    TOTEN  =       -44.53485646 eV

  energy without entropy =      -44.53485646  energy(sigma->0) =      -44.53485646


--------------------------------------------------------------------------------------------------------




--------------------------------------- Iteration      1(   7)  ---------------------------------------


    EDDIAG:  cpu time    0.4860: real time    0.5108
  RMM-DIIS:  cpu time    1.0486: real time    1.0489
    ORTHCH:  cpu time    0.0708: real time    0.0708
 BZINTS: Fermi energy: -1.419599;138.000000 electrons
         Band energy:***********;  BLOECHL correction: -0.056579
       DOS:  cpu time    0.0031: real time    0.0031
    --------------------------------------------
      LOOP:  cpu time    1.6085: real time    1.6335

 eigenvalue-minimisations  :   510
 total energy-change (2. order) :-0.2496419E+02  (-0.1911513E+02)
 number of electron     138.0000000 magnetization 
 augmentation part      138.0000000 magnetization 

 DIPCOR: dipole corrections for dipol
 direction  3 min pos   356,
 dipolmoment           0.000000      0.000000     -0.000400 electrons x Angstroem
 Tr[quadrupol]     -1866.789551

 energy correction for charged system         0.000000 eV
 dipol+quadrupol energy correction           -0.000000 eV
 added-field ion interaction          0.004250 eV  (added to PSCEN)


 Free energy of the ion-electron system (eV)
  ---------------------------------------------------
  alpha Z        PSCENC =        63.16531280
  Ewald energy   TEWEN  =     12561.86744252
  -Hartree energ DENC   =    -15787.20230982
  -exchange      EXHF   =         0.00000000
  -V(xc)+E(xc)   XCENC  =     -2051.07146346
  PAW double counting   =      5135.15659847    -2719.01140655
  entropy T*S    EENTRO =         0.00000000
  eigenvalues    EBANDS =     -1100.39136421
  atomic energy  EATOM  =      3827.98814510
  Solvation  Ediel_sol  =         0.00000000
  ---------------------------------------------------
  free energy    TOTEN  =       -69.49904516 eV

  energy without entropy =      -69.49904516  energy(sigma->0) =      -69.49904516


--------------------------------------------------------------------------------------------------------




--------------------------------------- Iteration      1(   8)  ---------------------------------------


    EDDIAG:  cpu time    0.4847: real time    0.5082
  RMM-DIIS:  cpu time    1.0459: real time    1.0462
    ORTHCH:  cpu time    0.0719: real time    0.0719
 BZINTS: Fermi energy: -1.447479;138.000000 electrons
         Band energy:***********;  BLOECHL correction: -0.084550
       DOS:  cpu time    0.0030: real time    0.0030
    --------------------------------------------
      LOOP:  cpu time    1.6055: real time    1.6293

 eigenvalue-minimisations  :   510
 total energy-change (2. order) :-0.6396567E+01  (-0.5495566E+01)
 number of electron     138.0000000 magnetization 
 augmentation part      138.0000000 magnetization 

 DIPCOR: dipole corrections for dipol
 direction  3 min pos   356,
 dipolmoment           0.000000      0.000000     -0.000400 electrons x Angstroem
 Tr[quadrupol]     -1866.789551

 energy correction for charged system         0.000000 eV
 dipol+quadrupol energy correction           -0.000000 eV
 added-field ion interaction          0.004250 eV  (added to PSCEN)


 Free energy of the ion-electron system (eV)
  ---------------------------------------------------
  alpha Z        PSCENC =        63.16531280
  Ewald energy   TEWEN  =     12561.86744252
  -Hartree energ DENC   =    -15787.20230982
  -exchange      EXHF   =         0.00000000
  -V(xc)+E(xc)   XCENC  =     -2051.07146346
  PAW double counting   =      5135.15659847    -2719.01140655
  entropy T*S    EENTRO =         0.00000000
  eigenvalues    EBANDS =     -1106.78793112
  atomic energy  EATOM  =      3827.98814510
  Solvation  Ediel_sol  =         0.00000000
  ---------------------------------------------------
  free energy    TOTEN  =       -75.89561206 eV

  energy without entropy =      -75.89561206  energy(sigma->0) =      -75.89561206


--------------------------------------------------------------------------------------------------------




--------------------------------------- Iteration      1(   9)  ---------------------------------------


    EDDIAG:  cpu time    0.4835: real time    0.5102
  RMM-DIIS:  cpu time    2.7094: real time    2.7099
    ORTHCH:  cpu time    0.0710: real time    0.0710
 BZINTS: Fermi energy: -1.478929;138.000000 electrons
         Band energy:***********;  BLOECHL correction: -0.103067
       DOS:  cpu time    0.0030: real time    0.0030
    --------------------------------------------
      LOOP:  cpu time    3.2670: real time    3.2942

 eigenvalue-minimisations  :  1481
 total energy-change (2. order) :-0.2160269E+01  (-0.2084232E+01)
 number of electron     138.0000000 magnetization 
 augmentation part      138.0000000 magnetization 

 DIPCOR: dipole corrections for dipol
 direction  3 min pos   356,
 dipolmoment           0.000000      0.000000     -0.000400 electrons x Angstroem
 Tr[quadrupol]     -1866.789551

 energy correction for charged system         0.000000 eV
 dipol+quadrupol energy correction           -0.000000 eV
 added-field ion interaction          0.004250 eV  (added to PSCEN)


 Free energy of the ion-electron system (eV)
  ---------------------------------------------------
  alpha Z        PSCENC =        63.16531280
  Ewald energy   TEWEN  =     12561.86744252
  -Hartree energ DENC   =    -15787.20230982
  -exchange      EXHF   =         0.00000000
  -V(xc)+E(xc)   XCENC  =     -2051.07146346
  PAW double counting   =      5135.15659847    -2719.01140655
  entropy T*S    EENTRO =         0.00000000
  eigenvalues    EBANDS =     -1108.94820047
  atomic energy  EATOM  =      3827.98814510
  Solvation  Ediel_sol  =         0.00000000
  ---------------------------------------------------
  free energy    TOTEN  =       -78.05588141 eV

  energy without entropy =      -78.05588141  energy(sigma->0) =      -78.05588141


--------------------------------------------------------------------------------------------------------




--------------------------------------- Iteration      1(  10)  ---------------------------------------


    EDDIAG:  cpu time    0.4864: real time    0.5131
  RMM-DIIS:  cpu time    3.2282: real time    3.2293
    ORTHCH:  cpu time    0.0707: real time    0.0707
 BZINTS: Fermi energy: -1.480574;138.000000 electrons
         Band energy:***********;  BLOECHL correction: -0.102505
       DOS:  cpu time    0.0031: real time    0.0031
    --------------------------------------------
      LOOP:  cpu time    3.7884: real time    3.8162

 eigenvalue-minimisations  :  1770
 total energy-change (2. order) :-0.2974071E+00  (-0.3065263E+00)
 number of electron     138.0000000 magnetization 
 augmentation part      138.0000000 magnetization 

 DIPCOR: dipole corrections for dipol
 direction  3 min pos   356,
 dipolmoment           0.000000      0.000000     -0.000400 electrons x Angstroem
 Tr[quadrupol]     -1866.789551

 energy correction for charged system         0.000000 eV
 dipol+quadrupol energy correction           -0.000000 eV
 added-field ion interaction          0.004250 eV  (added to PSCEN)


 Free energy of the ion-electron system (eV)
  ---------------------------------------------------
  alpha Z        PSCENC =        63.16531280
  Ewald energy   TEWEN  =     12561.86744252
  -Hartree energ DENC   =    -15787.20230982
  -exchange      EXHF   =         0.00000000
  -V(xc)+E(xc)   XCENC  =     -2051.07146346
  PAW double counting   =      5135.15659847    -2719.01140655
  entropy T*S    EENTRO =         0.00000000
  eigenvalues    EBANDS =     -1109.24560759
  atomic energy  EATOM  =      3827.98814510
  Solvation  Ediel_sol  =         0.00000000
  ---------------------------------------------------
  free energy    TOTEN  =       -78.35328853 eV

  energy without entropy =      -78.35328853  energy(sigma->0) =      -78.35328853


--------------------------------------------------------------------------------------------------------




--------------------------------------- Iteration      1(  11)  ---------------------------------------


    EDDIAG:  cpu time    0.4891: real time    0.5102
  RMM-DIIS:  cpu time    3.1174: real time    3.1180
    ORTHCH:  cpu time    0.0712: real time    0.0712
 BZINTS: Fermi energy: -1.480940;138.000000 electrons
         Band energy:***********;  BLOECHL correction: -0.102528
       DOS:  cpu time    0.0030: real time    0.0030
    --------------------------------------------
      LOOP:  cpu time    3.6807: real time    3.7024

 eigenvalue-minimisations  :  1714
 total energy-change (2. order) :-0.2344541E-02  (-0.1664327E-01)
 number of electron     138.0000000 magnetization 
 augmentation part      138.0000000 magnetization 

 DIPCOR: dipole corrections for dipol
 direction  3 min pos   356,
 dipolmoment           0.000000      0.000000     -0.000400 electrons x Angstroem
 Tr[quadrupol]     -1866.789551

 energy correction for charged system         0.000000 eV
 dipol+quadrupol energy correction           -0.000000 eV
 added-field ion interaction          0.004250 eV  (added to PSCEN)


 Free energy of the ion-electron system (eV)
  ---------------------------------------------------
  alpha Z        PSCENC =        63.16531280
  Ewald energy   TEWEN  =     12561.86744252
  -Hartree energ DENC   =    -15787.20230982
  -exchange      EXHF   =         0.00000000
  -V(xc)+E(xc)   XCENC  =     -2051.07146346
  PAW double counting   =      5135.15659847    -2719.01140655
  entropy T*S    EENTRO =         0.00000000
  eigenvalues    EBANDS =     -1109.24795213
  atomic energy  EATOM  =      3827.98814510
  Solvation  Ediel_sol  =         0.00000000
  ---------------------------------------------------
  free energy    TOTEN  =       -78.35563307 eV

  energy without entropy =      -78.35563307  energy(sigma->0) =      -78.35563307


--------------------------------------------------------------------------------------------------------




--------------------------------------- Iteration      1(  12)  ---------------------------------------


    EDDIAG:  cpu time    0.4887: real time    0.5133
  RMM-DIIS:  cpu time    3.2818: real time    3.2826
    ORTHCH:  cpu time    0.0711: real time    0.0711
 BZINTS: Fermi energy: -1.480978;138.000000 electrons
         Band energy:***********;  BLOECHL correction: -0.102552
       DOS:  cpu time    0.0028: real time    0.0028
    CHARGE:  cpu time    0.1272: real time    0.1272
    MIXING:  cpu time    0.0035: real time    0.0035
    --------------------------------------------
      LOOP:  cpu time    3.9751: real time    4.0006

 eigenvalue-minimisations  :  1814
 total energy-change (2. order) :-0.3090842E-02  (-0.3582182E-02)
 number of electron     138.0000001 magnetization 
 augmentation part        5.2114179 magnetization 

 DIPCOR: dipole corrections for dipol
 direction  3 min pos   356,
 dipolmoment           0.000000      0.000000     -0.000400 electrons x Angstroem
 Tr[quadrupol]     -1866.789551

 energy correction for charged system         0.000000 eV
 dipol+quadrupol energy correction           -0.000000 eV
 added-field ion interaction          0.004250 eV  (added to PSCEN)


 Broyden mixing:
  rms(total) = 0.19489E+01    rms(broyden)= 0.19477E+01
  rms(prec ) = 0.20423E+01
  weight for this iteration     100.00

 Free energy of the ion-electron system (eV)
  ---------------------------------------------------
  alpha Z        PSCENC =        63.16531280
  Ewald energy   TEWEN  =     12561.86744252
  -Hartree energ DENC   =    -15787.20230982
  -exchange      EXHF   =         0.00000000
  -V(xc)+E(xc)   XCENC  =     -2051.07146346
  PAW double counting   =      5135.15659847    -2719.01140655
  entropy T*S    EENTRO =         0.00000000
  eigenvalues    EBANDS =     -1109.25104297
  atomic energy  EATOM  =      3827.98814510
  Solvation  Ediel_sol  =         0.00000000
  ---------------------------------------------------
  free energy    TOTEN  =       -78.35872391 eV

  energy without entropy =      -78.35872391  energy(sigma->0) =      -78.35872391


--------------------------------------------------------------------------------------------------------




--------------------------------------- Iteration      1(  13)  ---------------------------------------


    POTLOK:  cpu time    4.9581: real time    4.9766
    SETDIJ:  cpu time    0.1373: real time    0.1373
    EDDIAG:  cpu time    0.4808: real time    0.4813
  RMM-DIIS:  cpu time    2.6139: real time    2.6143
    ORTHCH:  cpu time    0.0708: real time    0.0708
 BZINTS: Fermi energy: -1.037108;138.000000 electrons
         Band energy:-936.813671;  BLOECHL correction: -0.104044
       DOS:  cpu time    0.0030: real time    0.0030
    CHARGE:  cpu time    0.1264: real time    0.1264
    MIXING:  cpu time    0.0041: real time    0.0041
    --------------------------------------------
      LOOP:  cpu time    8.3942: real time    8.4139

 eigenvalue-minimisations  :  1415
 total energy-change (2. order) : 0.9886934E+01  (-0.5665202E+01)
 number of electron     138.0000000 magnetization 
 augmentation part        4.4816131 magnetization 

 DIPCOR: dipole corrections for dipol
 direction  3 min pos   361,
 dipolmoment           0.000000      0.000000      0.259337 electrons x Angstroem
 Tr[quadrupol]     -1878.060227

 energy correction for charged system         0.000000 eV
 dipol+quadrupol energy correction           -0.002359 eV
 added-field ion interaction         -1.935476 eV  (added to PSCEN)


 Broyden mixing:
  rms(total) = 0.75356E+00    rms(broyden)= 0.75307E+00
  rms(prec ) = 0.83494E+00
  weight for this iteration     100.00

 eigenvalues of (default mixing * dielectric matrix)
  average eigenvalue GAMMA=   0.9696
  0.9696

 Free energy of the ion-electron system (eV)
  ---------------------------------------------------
  alpha Z        PSCENC =        61.22322835
  Ewald energy   TEWEN  =     12561.86744252
  -Hartree energ DENC   =    -15954.79059747
  -exchange      EXHF   =         0.00000000
  -V(xc)+E(xc)   XCENC  =     -2041.57796915
  PAW double counting   =      5560.75821906    -3147.12658765
  entropy T*S    EENTRO =         0.00000000
  eigenvalues    EBANDS =      -936.81367105
  atomic energy  EATOM  =      3827.98814510
  Solvation  Ediel_sol  =         0.00000000
  ---------------------------------------------------
  free energy    TOTEN  =       -68.47179029 eV

  energy without entropy =      -68.47179029  energy(sigma->0) =      -68.47179029


--------------------------------------------------------------------------------------------------------




--------------------------------------- Iteration      1(  14)  ---------------------------------------


    POTLOK:  cpu time    4.9079: real time    4.9367
    SETDIJ:  cpu time    0.1355: real time    0.1356
    EDDIAG:  cpu time    0.4771: real time    0.4777
  RMM-DIIS:  cpu time    2.8474: real time    2.8481
    ORTHCH:  cpu time    0.0689: real time    0.0689
 BZINTS: Fermi energy: -0.868297;138.000000 electrons
         Band energy:-967.069693;  BLOECHL correction: -0.169253
       DOS:  cpu time    0.0029: real time    0.0029
    CHARGE:  cpu time    0.1280: real time    0.1280
    MIXING:  cpu time    0.0037: real time    0.0037
    --------------------------------------------
      LOOP:  cpu time    8.5714: real time    8.6015

 eigenvalue-minimisations  :  1553
 total energy-change (2. order) :-0.7702007E+01  (-0.3727332E+00)
 number of electron     138.0000000 magnetization 
 augmentation part        4.4148951 magnetization 

 DIPCOR: dipole corrections for dipol
 direction  3 min pos   376,
 dipolmoment           0.000000      0.000000     -1.190201 electrons x Angstroem
 Tr[quadrupol]     -1869.388412

 energy correction for charged system         0.000000 eV
 dipol+quadrupol energy correction           -0.049677 eV
 added-field ion interaction         -2.392532 eV  (added to PSCEN)


 Broyden mixing:
  rms(total) = 0.70217E+00    rms(broyden)= 0.70213E+00
  rms(prec ) = 0.17552E+01
  weight for this iteration     100.00

 eigenvalues of (default mixing * dielectric matrix)
  average eigenvalue GAMMA=   1.0173
  1.0173  1.0173

 Free energy of the ion-electron system (eV)
  ---------------------------------------------------
  alpha Z        PSCENC =        60.71885360
  Ewald energy   TEWEN  =     12561.86744252
  -Hartree energ DENC   =    -15933.81875650
  -exchange      EXHF   =         0.00000000
  -V(xc)+E(xc)   XCENC  =     -2039.42622031
  PAW double counting   =      5741.05112649    -3327.48469528
  entropy T*S    EENTRO =         0.00000000
  eigenvalues    EBANDS =      -967.06969335
  atomic energy  EATOM  =      3827.98814510
  Solvation  Ediel_sol  =         0.00000000
  ---------------------------------------------------
  free energy    TOTEN  =       -76.17379774 eV

  energy without entropy =      -76.17379774  energy(sigma->0) =      -76.17379774


--------------------------------------------------------------------------------------------------------




--------------------------------------- Iteration      1(  15)  ---------------------------------------


    POTLOK:  cpu time    4.9249: real time    4.9468
    SETDIJ:  cpu time    0.1342: real time    0.1342
    EDDIAG:  cpu time    0.4774: real time    0.4778
  RMM-DIIS:  cpu time    2.6554: real time    2.6560
    ORTHCH:  cpu time    0.0701: real time    0.0701
 BZINTS: Fermi energy: -1.128588;138.000000 electrons
         Band energy:-923.368673;  BLOECHL correction: -0.136928
       DOS:  cpu time    0.0028: real time    0.0028
    CHARGE:  cpu time    0.1256: real time    0.1256
    MIXING:  cpu time    0.0042: real time    0.0042
    --------------------------------------------
      LOOP:  cpu time    8.3947: real time    8.4176

 eigenvalue-minimisations  :  1462
 total energy-change (2. order) : 0.7513361E+01  (-0.1584648E+00)
 number of electron     138.0000000 magnetization 
 augmentation part        4.3545912 magnetization 

 DIPCOR: dipole corrections for dipol
 direction  3 min pos   385,
 dipolmoment           0.000000      0.000000      0.193616 electrons x Angstroem
 Tr[quadrupol]     -1878.143365

 energy correction for charged system         0.000000 eV
 dipol+quadrupol energy correction           -0.001315 eV
 added-field ion interaction          1.489726 eV  (added to PSCEN)


 Broyden mixing:
  rms(total) = 0.51189E+00    rms(broyden)= 0.51186E+00
  rms(prec ) = 0.71012E+00
  weight for this iteration     100.00

 eigenvalues of (default mixing * dielectric matrix)
  average eigenvalue GAMMA=   1.1310
  2.0425  1.2035  0.1470

 Free energy of the ion-electron system (eV)
  ---------------------------------------------------
  alpha Z        PSCENC =        64.64947411
  Ewald energy   TEWEN  =     12561.86744252
  -Hartree energ DENC   =    -15974.26202945
  -exchange      EXHF   =         0.00000000
  -V(xc)+E(xc)   XCENC  =     -2039.11557507
  PAW double counting   =      5768.42863300    -3354.84785441
  entropy T*S    EENTRO =         0.00000000
  eigenvalues    EBANDS =      -923.36867264
  atomic energy  EATOM  =      3827.98814510
  Solvation  Ediel_sol  =         0.00000000
  ---------------------------------------------------
  free energy    TOTEN  =       -68.66043684 eV

  energy without entropy =      -68.66043684  energy(sigma->0) =      -68.66043684


--------------------------------------------------------------------------------------------------------




--------------------------------------- Iteration      1(  16)  ---------------------------------------


    POTLOK:  cpu time    5.0831: real time    5.1084
    SETDIJ:  cpu time    0.2619: real time    0.2620
    EDDIAG:  cpu time    0.8379: real time    0.8386
  RMM-DIIS:  cpu time    3.1433: real time    3.1442
    ORTHCH:  cpu time    0.0829: real time    0.0829
 BZINTS: Fermi energy: -0.855282;138.000000 electrons
         Band energy:-911.790696;  BLOECHL correction: -0.047199
       DOS:  cpu time    0.0030: real time    0.0030
    CHARGE:  cpu time    0.2323: real time    0.2361
    MIXING:  cpu time    0.0103: real time    0.0103
    --------------------------------------------
      LOOP:  cpu time    9.6547: real time    9.6855

 eigenvalue-minimisations  :  1492
 total energy-change (2. order) : 0.6522309E+00  (-0.1185423E+00)
 number of electron     138.0000000 magnetization 
 augmentation part        4.4279327 magnetization 

 DIPCOR: dipole corrections for dipol
 direction  3 min pos   368,
 dipolmoment           0.000000      0.000000      0.008237 electrons x Angstroem
 Tr[quadrupol]     -1881.626728

 energy correction for charged system         0.000000 eV
 dipol+quadrupol energy correction           -0.000002 eV
 added-field ion interaction         -0.025058 eV  (added to PSCEN)


 Broyden mixing:
  rms(total) = 0.22278E+00    rms(broyden)= 0.22276E+00
  rms(prec ) = 0.32824E+00
  weight for this iteration     100.00

 eigenvalues of (default mixing * dielectric matrix)
  average eigenvalue GAMMA=   1.0615
  2.4371  1.0358  0.6207  0.1523

 Free energy of the ion-electron system (eV)
  ---------------------------------------------------
  alpha Z        PSCENC =        63.13600299
  Ewald energy   TEWEN  =     12561.86744252
  -Hartree energ DENC   =    -15985.05814976
  -exchange      EXHF   =         0.00000000
  -V(xc)+E(xc)   XCENC  =     -2037.92900314
  PAW double counting   =      5890.81958344    -3477.04153090
  entropy T*S    EENTRO =         0.00000000
  eigenvalues    EBANDS =      -911.79069622
  atomic energy  EATOM  =      3827.98814510
  Solvation  Ediel_sol  =         0.00000000
  ---------------------------------------------------
  free energy    TOTEN  =       -68.00820596 eV

  energy without entropy =      -68.00820596  energy(sigma->0) =      -68.00820596


--------------------------------------------------------------------------------------------------------




--------------------------------------- Iteration      1(  17)  ---------------------------------------


    POTLOK:  cpu time    6.2106: real time    6.2390
    SETDIJ:  cpu time    0.1358: real time    0.1359
    EDDIAG:  cpu time    0.5204: real time    0.5209
  RMM-DIIS:  cpu time    2.4427: real time    2.4432
    ORTHCH:  cpu time    0.0735: real time    0.0735
 BZINTS: Fermi energy: -0.810382;138.000000 electrons
         Band energy:-907.025129;  BLOECHL correction: -0.105831
       DOS:  cpu time    0.0031: real time    0.0031
    CHARGE:  cpu time    0.1293: real time    0.1293
    MIXING:  cpu time    0.0047: real time    0.0047
    --------------------------------------------
      LOOP:  cpu time    9.5201: real time    9.5497

 eigenvalue-minimisations  :  1331
 total energy-change (2. order) : 0.1233222E+00  (-0.3259354E-01)
 number of electron     138.0000000 magnetization 
 augmentation part        4.4472118 magnetization 

 DIPCOR: dipole corrections for dipol
 direction  3 min pos   378,
 dipolmoment           0.000000      0.000000     -0.313352 electrons x Angstroem
 Tr[quadrupol]     -1880.385623

 energy correction for charged system         0.000000 eV
[...]
  0.014  -0.001  -0.000   0.054   0.000   0.000  -0.003  -0.000   0.000  -0.000   0.011  -0.000  -0.000
  0.002   0.000  -0.001   0.000   0.076   0.000  -0.000  -0.004  -0.003  -0.000   0.000   0.005   0.000
  0.000   0.000  -0.004   0.000   0.000   0.000  -0.000  -0.000  -0.000  -0.000  -0.000   0.000   0.000
 -0.003   0.000   0.000  -0.003  -0.000  -0.000   0.000   0.000  -0.000   0.000  -0.001   0.000   0.000
 -0.000  -0.000   0.000  -0.000  -0.004  -0.000   0.000   0.000   0.000   0.000   0.000  -0.000  -0.000
  0.002   0.000   0.000   0.000  -0.003  -0.000  -0.000   0.000   0.004  -0.000   0.000  -0.000  -0.000
 -0.000  -0.000   0.004  -0.000  -0.000  -0.000   0.000   0.000  -0.000   0.002   0.000   0.000  -0.000
 -0.021   0.000   0.000   0.011   0.000  -0.000  -0.001   0.000   0.000   0.000   0.004  -0.000  -0.000
  0.000   0.000  -0.000  -0.000   0.005   0.000   0.000  -0.000  -0.000   0.000  -0.000   0.002   0.000
 -0.001  -0.000  -0.003  -0.000   0.000   0.000   0.000  -0.000  -0.000  -0.000  -0.000   0.000   0.003


------------------------ aborting loop because EDIFF is reached ----------------------------------------


    CHARGE:  cpu time    0.3625: real time    0.3625
    FORLOC:  cpu time    0.0389: real time    0.0389
    FORNL :  cpu time    0.6960: real time    0.6961
    STRESS:  cpu time    2.0993: real time    2.0995
    FORCOR:  cpu time    4.9445: real time    4.9454
    FORHAR:  cpu time    0.0736: real time    0.0736
    MIXING:  cpu time    0.0091: real time    0.0091
    OFIELD:  cpu time    0.0001: real time    0.0001

  FORCE on cell =-STRESS in cart. coord.  units (eV):
  Direction    XX          YY          ZZ          XY          YZ          ZX
  --------------------------------------------------------------------------------------
  Alpha Z    63.16106    63.16106    63.16106
  Ewald   14160.78993 13906.15305-15505.08542  -283.20566   132.75873   100.45114
  Hartree 15053.57540 14864.39707-13904.79484  -216.74922    39.78497    19.35181
  E(xc)    -445.06175  -445.23423  -443.69827    -0.21909     0.51945     0.50856
  Local  -30178.55497-29739.02169 28455.99861   498.86878  -141.81236   -87.80008
  n-local   120.12893   120.19278   112.15454     0.58701     0.91612     0.67862
  augment    44.70273    44.83285    44.92859    -0.11402    -2.10016    -2.15655
  Kinetic  1173.26626  1175.59257  1178.42049    -1.51762   -30.47934   -30.60027
  Fock        0.00000     0.00000     0.00000     0.00000     0.00000     0.00000
  -------------------------------------------------------------------------------------
  Total      -7.99240    -9.92655     1.08477    -2.34982    -0.41260     0.43323
  in kB      -4.96336    -6.16448     0.67365    -1.45926    -0.25623     0.26904
  external pressure =       -3.48 kB  Pullay stress =        0.00 kB


 VOLUME and BASIS-vectors are now :
 -----------------------------------------------------------------------------
  energy-cutoff  :      520.00
  volume of cell :     2579.96
      direct lattice vectors                 reciprocal lattice vectors
     9.555752754  0.000000000  0.000000000     0.104649003  0.060419130  0.000000000
    -4.777876377  8.275524637  0.000000000     0.000000000  0.120838260  0.000000000
     0.000000000  0.000000000 32.625095367     0.000000000  0.000000000  0.030651251

  length of vectors
     9.555752754  9.555752754 32.625095367     0.120838260  0.120838260  0.030651251


 FORCES acting on ions
    electron-ion (+dipol)            ewald-force                    non-local-force                 convergence-correction
 -----------------------------------------------------------------------------------------------
   0.529E-01 -.440E-01 0.121E+03   -.112E-03 0.154E-02 -.120E+03   -.411E-01 0.156E-01 -.809E+00   -.120E-05 0.515E-06 -.155E-04
   0.107E-01 -.106E+00 0.554E+02   0.407E-02 0.748E-01 -.554E+02   -.265E-01 0.194E-01 0.122E-01   0.262E-05 -.142E-05 0.276E-04
   -.189E+01 -.244E+01 0.475E+01   0.193E+01 0.236E+01 -.552E+01   -.262E-01 0.584E-01 0.748E+00   0.113E-06 -.140E-05 0.225E-04
   -.872E-03 -.403E-01 0.121E+03   0.421E-03 0.113E-03 -.120E+03   -.261E-01 0.302E-01 -.902E+00   -.221E-05 -.121E-05 -.122E-04
   -.426E-01 -.261E-01 0.552E+02   0.703E-01 0.304E-01 -.553E+02   -.323E-01 0.362E-03 0.545E-01   -.311E-05 0.275E-05 0.257E-04
   -.293E+01 -.355E+01 -.812E+01   0.293E+01 0.351E+01 0.766E+01   -.309E-01 0.324E-01 0.480E+00   -.803E-05 0.569E-05 0.364E-04
   0.292E-01 0.383E-01 0.121E+03   0.798E-03 -.110E-02 -.120E+03   -.408E-01 -.161E-02 -.883E+00   0.341E-05 0.645E-06 -.129E-04
   -.361E-01 0.358E-01 0.555E+02   0.435E-01 -.445E-01 -.555E+02   -.222E-01 0.136E-01 0.476E-01   0.369E-05 0.445E-06 0.305E-04
   -.563E+00 0.215E+01 -.131E+02   0.602E+00 -.210E+01 0.126E+02   -.445E-01 -.147E-01 0.537E+00   0.426E-05 -.498E-05 0.279E-04
   -.912E-02 -.570E-01 0.121E+03   -.210E-03 0.577E-03 -.120E+03   -.187E-01 0.451E-01 -.922E+00   0.359E-05 -.137E-05 -.124E-04
   0.192E-01 -.423E-01 0.553E+02   0.753E-02 0.303E-01 -.554E+02   -.316E-01 0.624E-02 0.747E-01   0.174E-05 -.340E-05 0.286E-04
   -.982E+00 -.178E+01 -.544E+01   0.911E+00 0.168E+01 0.508E+01   0.374E-01 0.848E-01 0.374E+00   0.619E-05 -.165E-05 0.283E-04
   0.566E-01 0.400E-01 0.121E+03   -.939E-03 0.888E-03 -.120E+03   -.454E-01 -.703E-02 -.890E+00   -.220E-06 -.164E-05 -.130E-04
   0.810E-01 0.238E-01 0.554E+02   -.628E-01 -.114E-01 -.554E+02   -.140E-01 -.764E-03 0.358E-01   0.472E-06 -.261E-05 0.263E-04
   0.256E+01 0.542E+00 -.160E+02   -.252E+01 -.457E+00 0.155E+02   -.340E-01 -.445E-01 0.507E+00   0.503E-05 0.490E-05 0.342E-04
   0.697E-01 -.401E-01 0.121E+03   0.376E-03 -.200E-02 -.120E+03   -.537E-01 0.310E-01 -.806E+00   -.205E-05 0.366E-05 -.119E-04
   0.380E-01 0.372E-01 0.554E+02   -.883E-02 -.548E-01 -.554E+02   -.328E-01 0.210E-01 0.946E-02   -.616E-05 0.362E-05 0.276E-04
   -.121E+01 0.481E+01 0.120E+01   0.128E+01 -.490E+01 -.189E+01   -.559E-01 0.714E-01 0.681E+00   -.645E-06 0.717E-06 0.300E-04
   0.458E-01 0.219E-01 0.121E+03   0.399E-03 0.119E-02 -.120E+03   -.424E-01 -.125E-02 -.891E+00   -.238E-05 0.133E-05 -.122E-04
   0.361E-01 -.231E-01 0.555E+02   -.901E-02 -.402E-02 -.555E+02   -.248E-01 0.247E-01 0.495E-01   -.440E-05 0.142E-05 0.261E-04
   0.176E+01 0.215E+01 -.115E+02   -.167E+01 -.205E+01 0.110E+02   -.915E-01 -.688E-01 0.456E+00   -.817E-05 0.314E-05 0.332E-04
   0.406E-01 -.289E-01 0.121E+03   0.598E-03 -.152E-03 -.120E+03   -.384E-01 0.228E-01 -.810E+00   0.241E-05 -.474E-05 -.123E-04
   0.259E-01 0.206E-01 0.554E+02   -.295E-02 -.108E-01 -.554E+02   -.338E-01 0.571E-02 0.175E-01   0.263E-05 -.167E-05 0.288E-04
   0.473E-01 0.102E+01 0.642E+01   -.285E-01 -.106E+01 -.705E+01   -.978E-02 0.440E-01 0.616E+00   0.284E-05 -.590E-06 0.290E-04
   -.145E-01 -.236E-01 0.121E+03   -.109E-02 -.119E-02 -.120E+03   -.452E-02 0.184E-01 -.903E+00   -.133E-05 0.277E-05 -.146E-04
   0.550E-01 0.213E-01 0.554E+02   -.317E-01 -.136E-01 -.554E+02   -.200E-01 -.211E-02 0.625E-01   0.248E-05 0.919E-06 0.281E-04
   0.602E+00 -.726E+00 -.521E+01   -.675E+00 0.684E+00 0.475E+01   0.463E-01 0.339E-01 0.481E+00   -.146E-05 -.557E-05 0.384E-04
   0.246E-01 -.130E-01 0.888E+02   -.148E-01 -.229E-01 -.887E+02   -.306E-02 0.612E-03 -.677E-01   -.246E-05 0.132E-05 0.995E-05
   -.209E+00 -.232E-01 0.215E+02   0.208E+00 0.672E-01 -.217E+02   0.677E-02 -.777E-01 0.151E+00   -.508E-06 -.150E-06 0.373E-04
   -.191E-01 0.703E-02 0.888E+02   0.396E-01 0.439E-02 -.887E+02   0.564E-02 0.661E-02 -.641E-01   0.116E-06 0.118E-05 0.111E-04
   -.670E+00 -.141E-01 0.215E+02   0.599E+00 0.261E-01 -.217E+02   0.897E-01 0.977E-02 0.183E+00   -.410E-05 0.557E-05 0.401E-04
   -.512E-02 -.224E-01 0.888E+02   -.359E-01 0.282E-01 -.887E+02   -.379E-02 -.283E-02 -.123E+00   0.446E-05 -.128E-05 0.120E-04
   0.317E+00 -.239E+00 0.227E+02   -.267E+00 0.198E+00 -.228E+02   -.737E-01 0.379E-01 0.121E+00   0.579E-05 -.497E-05 0.383E-04
   -.110E-01 0.170E-01 0.888E+02   0.299E-01 0.299E-01 -.887E+02   0.130E-01 -.121E-01 -.621E-01   0.219E-05 -.381E-05 0.977E-05
   -.568E-02 -.160E+00 0.220E+02   -.440E-01 0.195E+00 -.222E+02   0.847E-01 -.386E-02 0.159E+00   0.514E-05 -.403E-05 0.412E-04
   0.305E-02 -.140E-01 0.888E+02   -.444E-01 0.165E-01 -.887E+02   0.102E-01 0.421E-02 -.120E+00   -.417E-05 0.955E-06 0.934E-05
   0.804E+00 0.166E-01 0.221E+02   -.740E+00 -.431E-01 -.222E+02   -.701E-01 0.365E-01 0.129E+00   -.315E-05 0.233E-05 0.415E-04
   0.614E-02 0.166E-01 0.888E+02   -.418E-02 -.413E-01 -.887E+02   0.738E-02 -.138E-01 -.722E-01   -.762E-06 0.141E-05 0.934E-05
   -.665E-01 0.603E+00 0.220E+02   0.612E-01 -.577E+00 -.221E+02   0.891E-02 -.579E-01 0.167E+00   -.503E-05 0.432E-06 0.400E-04
   0.195E-02 -.155E-01 0.888E+02   -.293E-01 0.350E-01 -.887E+02   -.474E-02 0.115E-03 -.114E+00   0.271E-06 -.233E-05 0.903E-05
   0.209E+00 -.275E+00 0.226E+02   -.168E+00 0.245E+00 -.227E+02   -.657E-01 0.462E-01 0.136E+00   -.442E-05 0.194E-05 0.416E-04
   0.425E-01 0.252E-01 0.888E+02   -.100E-01 -.495E-01 -.887E+02   -.182E-01 -.985E-02 -.550E-01   0.406E-05 -.102E-05 0.111E-04
   -.154E+00 0.327E+00 0.222E+02   0.167E+00 -.302E+00 -.224E+02   -.717E-02 -.516E-01 0.172E+00   0.704E-05 -.125E-05 0.404E-04
   0.574E-02 -.904E-02 0.888E+02   0.266E-01 0.240E-01 -.887E+02   0.111E-01 0.658E-02 -.631E-01   -.368E-05 0.359E-05 0.903E-05
   -.262E+00 -.187E+00 0.224E+02   0.216E+00 0.177E+00 -.225E+02   0.811E-01 0.134E-01 0.157E+00   -.772E-06 0.183E-06 0.376E-04
   0.148E+02 0.344E+02 -.240E+03   -.262E+02 -.597E+02 0.214E+03   0.114E+02 0.253E+02 0.258E+02   -.484E-04 0.280E-05 -.140E-04
   0.672E+01 0.159E+02 -.396E+03   -.198E+02 -.439E+02 0.426E+03   0.131E+02 0.280E+02 -.293E+02   0.552E-04 0.152E-04 -.298E-04
   0.583E+01 0.749E+01 -.397E+03   -.202E+02 -.315E+02 0.430E+03   0.144E+02 0.240E+02 -.325E+02   0.176E-06 0.568E-04 -.107E-03
   0.274E+02 0.410E+02 -.233E+03   -.434E+02 -.632E+02 0.209E+03   0.160E+02 0.221E+02 0.244E+02   0.131E-04 0.148E-04 -.420E-04
   0.243E+02 0.182E+02 -.402E+03   -.309E+02 -.422E+02 0.438E+03   0.658E+01 0.240E+02 -.352E+02   -.376E-04 0.710E-05 -.144E-03
   0.956E+01 0.602E+02 -.247E+03   -.214E+02 -.851E+02 0.220E+03   0.118E+02 0.249E+02 0.264E+02   0.732E-04 -.247E-04 -.345E-04
   0.362E+02 -.452E+02 -.865E+02   -.409E+02 0.506E+02 0.896E+02   0.474E+01 -.544E+01 -.315E+01   -.562E-05 0.412E-05 -.595E-05
   -.569E+02 -.167E+01 -.930E+02   0.640E+02 0.149E+01 0.967E+02   -.707E+01 0.173E+00 -.368E+01   -.154E-05 0.126E-05 -.439E-05
   -.377E+02 -.720E+02 -.693E+02   0.415E+02 0.791E+02 0.701E+02   -.385E+01 -.713E+01 -.812E+00   0.590E-05 0.299E-05 -.814E-05
   0.913E+01 0.755E+01 0.398E+02   -.102E+02 -.847E+01 -.469E+02   0.105E+01 0.890E+00 0.710E+01   0.667E-05 -.329E-06 -.499E-05
   -.456E+02 -.728E+02 -.576E+02   0.499E+02 0.797E+02 0.576E+02   -.425E+01 -.690E+01 0.332E-01   -.302E-05 0.489E-06 -.115E-04
   0.115E+02 0.156E+02 0.378E+02   -.127E+02 -.172E+02 -.447E+02   0.120E+01 0.162E+01 0.692E+01   -.257E-05 0.764E-05 0.108E-05
   0.261E+02 -.482E+02 -.823E+02   -.298E+02 0.544E+02 0.853E+02   0.365E+01 -.614E+01 -.300E+01   0.155E-05 -.333E-05 -.127E-04
   -.561E+02 0.930E+01 -.918E+02   0.631E+02 -.108E+02 0.955E+02   -.694E+01 0.146E+01 -.371E+01   -.313E-05 0.143E-05 -.137E-04
   -.371E+02 -.656E+02 -.504E+02   0.411E+02 0.726E+02 0.496E+02   -.401E+01 -.702E+01 0.728E+00   -.783E-05 -.727E-05 -.115E-04
   0.324E+02 0.157E+02 0.318E+02   -.352E+02 -.172E+02 -.385E+02   0.287E+01 0.150E+01 0.673E+01   -.126E-05 0.230E-05 0.223E-05
   0.352E+02 -.419E+02 -.812E+02   -.399E+02 0.475E+02 0.839E+02   0.470E+01 -.563E+01 -.276E+01   0.102E-04 -.788E-05 -.881E-05
   -.612E+02 0.363E+01 -.100E+03   0.682E+02 -.398E+01 0.105E+03   -.698E+01 0.351E+00 -.430E+01   -.271E-05 -.243E-05 -.153E-04
 -----------------------------------------------------------------------------------------------
   -.577E+02 -.116E+03 0.223E+02   0.142E-13 0.266E-14 -.853E-12   0.577E+02 0.116E+03 -.223E+02   0.524E-04 0.713E-04 0.396E-03
 
 
 POSITION                                       TOTAL-FORCE (eV/Angst)
 -----------------------------------------------------------------------------------
      0.00000      0.00000      0.00000         0.011883     -0.026697      0.009148
      9.54040      0.00991      5.15138        -0.011489     -0.011911      0.001078
      4.71531      8.26906     10.74230         0.013593     -0.020965     -0.015941
     -1.59263      2.75851      0.00000        -0.026272     -0.009892     -0.017991
      7.95544      2.76735      5.13254        -0.004306      0.004725     -0.005437
      7.92145      2.79018     10.13708        -0.030290     -0.006863      0.012422
     -3.18525      5.51702      0.00000        -0.010520      0.035636     -0.027870
      6.35859      5.51764      5.12732        -0.014627      0.004959      0.002663
      6.32904      5.55991     10.21929        -0.005062      0.034143      0.016915
      3.18525      0.00000      0.00000        -0.027790     -0.011225     -0.019508
      3.17907      0.00888      5.12881        -0.004545     -0.005715      0.000365
      3.12292      0.03103     10.09187        -0.033915     -0.010202      0.010327
      1.59263      2.75851      0.00000         0.010517      0.033946     -0.017183
      1.58012      2.75966      5.12828         0.004436      0.011665     -0.002999
      1.53078      2.80473     10.25414         0.007895      0.040434      0.009045
     -0.00000      5.51702      0.00000         0.016534     -0.011025      0.005417
     -0.01592      5.52680      5.15139        -0.003386      0.003476      0.006319
     -0.06316      5.54627     10.78558         0.020012     -0.015670     -0.016186
      6.37050      0.00000      0.00000         0.004097      0.021911     -0.018724
      6.35799      0.00401      5.12858         0.002564     -0.002333      0.002235
      6.32853      0.03878     10.21357         0.005264      0.031037      0.008175
      4.77788      2.75851      0.00000         0.003025     -0.006158      0.003796
      4.76345      2.76664      5.15477        -0.010603      0.015605      0.005838
      4.71596      2.77008     10.70354         0.009286     -0.003576     -0.007793
      3.18525      5.51702      0.00000        -0.019855     -0.006343     -0.029851
      3.17751      5.52547      5.12924         0.003573      0.005671      0.005396
      3.11355      5.53947     10.10163        -0.027065     -0.007994      0.014276
      0.00000      1.83901      2.60418         0.006972     -0.035221      0.008261
     -0.00675      1.82130      7.70213         0.006563     -0.033717      0.000137
     -1.59263      4.59751      2.60418         0.026428      0.018110      0.012931
     -1.59575      4.63710      7.69300         0.018457      0.021862     -0.000310
     -3.18525      7.35602      2.60418        -0.044521      0.003028     -0.033246
     -3.22809      7.36283      7.64447        -0.022959     -0.003539      0.011030
      3.18525      1.83901      2.60418         0.032168      0.034883      0.007396
      3.17746      1.88691      7.69206         0.035265      0.031095      0.003323
      1.59263      4.59751      2.60418        -0.030922      0.006838     -0.028162
      1.54523      4.60320      7.64962        -0.005772      0.010098      0.009774
      0.00000      7.35602      2.60418         0.009587     -0.038366      0.009046
     -0.00591      7.33851      7.69125         0.003876     -0.032418     -0.001554
      6.37050      1.83901      2.60418        -0.031877      0.019606     -0.027258
      6.32901      1.85524      7.66266        -0.024150      0.016457      0.007513
      4.77788      4.59751      2.60418         0.014565     -0.034048      0.013426
      4.76970      4.58343      7.69171         0.005976     -0.026421     -0.005463
      3.18525      7.35602      2.60418         0.043645      0.021646      0.009303
      3.18036      7.39479      7.68404         0.035183      0.003962     -0.001554
      4.57112      8.13349     12.92733        -0.003687      0.005915      0.011057
     -2.10904      7.83958     13.48700         0.008031     -0.005023      0.030489
      7.39387      1.96229     13.44872         0.011113      0.003179      0.031574
      4.62385      2.80593     12.85222        -0.007714     -0.011650      0.020803
      2.98208      5.05659     13.48608        -0.006538     -0.001451      0.042460
     -0.22037      5.69154     12.94193         0.010266      0.002550      0.009665
      8.77358      0.55298     13.33584         0.000990      0.000092     -0.001000
     -4.11499      8.13512     13.39552         0.002793     -0.005406     -0.006052
      3.13347      0.42515     13.56494        -0.001525     -0.006841     -0.002310
     -2.23933      7.74279     12.49773        -0.006389     -0.029972     -0.020362
      7.90873      2.79777     13.42251         0.003432      0.002467      0.001769
      7.24323      1.76299     12.47633        -0.009369     -0.008349     -0.019868
      4.17717      3.60048     13.24887        -0.005066      0.001895      0.005807
      5.47769      2.64953     13.32034         0.000297     -0.001144      0.002056
      3.46368      5.90599     13.37497        -0.000431     -0.001973      0.004517
      2.61487      4.88248     12.57665        -0.000170     -0.012054     -0.025314
     -0.79485      6.41409     13.30478         0.013412     -0.003888      0.000747
      0.60698      5.67158     13.46724         0.029117      0.001159     -0.014563
 -----------------------------------------------------------------------------------
    total drift:                               -0.015340     -0.005111     -0.024703


--------------------------------------------------------------------------------------------------------



  FREE ENERGIE OF THE ION-ELECTRON SYSTEM (eV)
  ---------------------------------------------------
  free  energy   TOTEN  =       -67.85158072 eV

  energy  without entropy=      -67.85158072  energy(sigma->0) =      -67.85158072
 


--------------------------------------------------------------------------------------------------------


    POTLOK:  cpu time    5.0789: real time    5.0798


--------------------------------------------------------------------------------------------------------


 stress matrix after NEB project (eV)
     -7.99240     -2.34982      0.43323
     -2.34982     -9.92655     -0.41260
      0.43323     -0.41260      1.08477
  FORCES: max atom, RMS     0.047133    0.021602
  FORCE total and by dimension    0.171464    0.042460
  Stress total and by dimension   13.242006    9.926550
     LOOP+:  cpu time  280.8432: real time  282.5740
 vacuum level on the upper side and lower side of the slab         2.327         3.132
    4ORBIT:  cpu time    0.0000: real time    0.0000
 BZINTS: Fermi energy: -0.681828;138.000000 electrons
         Band energy:-889.580283;  BLOECHL correction: -0.106937

 total amount of memory used by VASP MPI-rank0    62219. kBytes
=======================================================================

   base      :      30000. kBytes
   nonlr-proj:       6316. kBytes
   fftplans  :       6459. kBytes
   grid      :      11407. kBytes
   one-center:         24. kBytes
   wavefun   :       8013. kBytes
 
  
  
 General timing and accounting informations for this job:
 ========================================================
  
                  Total CPU time used (sec):      325.946
                            User time (sec):      317.422
                          System time (sec):        8.524
                         Elapsed time (sec):      336.971
  
                   Maximum memory used (kb):      267164.
                   Average memory used (kb):           0.
  
                          Minor page faults:       241742
                          Major page faults:            0
                 Voluntary context switches:        79953
