<?xml version="1.0" encoding="ISO-8859-1"?>
<modeling>
 <generator>
  <i name="program" type="string">vasp </i>
  <i name="version" type="string">5.4.4.18Apr17-6-g9f103f2a35  </i>
  <i name="subversion" type="string">(build Jun 08 2018 12:06:12) complex            parallel </i>
  <i name="platform" type="string">LinuxIFC </i>
  <i name="date" type="string">2019 06 06 </i>
  <i name="time" type="string">06:38:27 </i>
 </generator>
 <incar>
  <i type="string" name="SYSTEM"> Mg_slab_in_a_box</i>
  <i type="string" name="PREC">accurate</i>
  <i type="string" name="ALGO"> V</i>
  <i type="int" name="NELM">   300</i>
  <i type="int" name="NELMIN">     6</i>
  <i name="EDIFF">      0.00000500</i>
  <i name="ENCUT">    520.00000000</i>
  <i type="string" name="LREAL"> AUTO</i>
  <i type="logical" name="LPLANE"> T  </i>
  <i type="int" name="ISMEAR">    -5</i>
  <i type="logical" name="LWAVE"> F  </i>
  <i type="logical" name="LCHARG"> T  </i>
  <i type="logical" name="LVTOT"> T  </i>
  <i type="logical" name="LVHAR"> T  </i>
  <i type="logical" name="LSCALU"> F  </i>
  <i type="logical" name="LASPH"> T  </i>
  <i type="logical" name="LAECHG"> T  </i>
  <v type="int" name="KPOINT_BSE">    -1     0     0     0</v>
  <i type="int" name="NELM">   300</i>
  <i type="string" name="GGA"> BO</i>
  <i name="PARAM1">      0.18333333</i>
  <i name="PARAM2">      0.22000000</i>
  <i type="logical" name="LUSE_VDW"> T  </i>
  <i name="AGGAC">      0.00000000</i>
  <i type="logical" name="LDIPOL"> T  </i>
  <i type="int" name="IDIPOL">     3</i>
  <i type="logical" name="LASPH"> T  </i>
 </incar>
 <structure name="primitive_cell" >
  <crystal>
   <varray name="basis" >
    <v>       9.55575275       0.00000000       0.00000000 </v>
    <v>      -4.77787638       8.27552464       0.00000000 </v>
    <v>       0.00000000       0.00000000      32.62509537 </v>
   </varray>
   <i name="volume">   2579.95558872 </i>
   <varray name="rec_basis" >
    <v>       0.10464900       0.06041913       0.00000000 </v>
    <v>       0.00000000       0.12083826       0.00000000 </v>
    <v>       0.00000000       0.00000000       0.03065125 </v>
   </varray>
  </crystal>
  <varray name="positions" >
   <v>       0.00000000       0.00000000       0.00000000 </v>
   <v>       0.00000002      -0.33333328       0.00000000 </v>
   <v>      -0.33333330      -0.33333328       0.00000000 </v>
   <v>      -0.33333332       0.00000000       0.00000000 </v>
   <v>       0.33333334       0.00000000       0.00000000 </v>
   <v>       0.00000001       0.33333336       0.00000000 </v>
   <v>       0.33333335       0.33333336       0.00000000 </v>
   <v>      -0.22222216      -0.11111106       0.07982145 </v>
   <v>       0.11111116      -0.11111106       0.07982145 </v>
   <v>       0.11111113       0.22222222       0.07982145 </v>
   <v>      -0.22222219      -0.44444439       0.07982145 </v>
   <v>      -0.22222221       0.22222222       0.07982145 </v>
   <v>       0.44444450       0.22222222       0.07982145 </v>
   <v>      -0.00100815       0.00119768       0.15789616 </v>
   <v>       0.33333336      -0.33333328       0.00000000 </v>
   <v>      -0.33333332       0.33333336       0.00000000 </v>
   <v>       0.44444450      -0.44444439       0.07982145 </v>
   <v>       0.44444451      -0.11111106       0.07982145 </v>
   <v>       0.11111114      -0.44444439       0.07982145 </v>
   <v>      -0.00120858      -0.33325773       0.15715877 </v>
   <v>       0.33322267       0.00107267       0.15720447 </v>
   <v>       0.33209461       0.33347254       0.15718829 </v>
   <v>      -0.33363267      -0.33231200       0.15721776 </v>
   <v>      -0.33440081       0.00048475       0.15719747 </v>
   <v>      -0.00026997       0.33440155       0.15731866 </v>
   <v>       0.33225816      -0.33215129       0.15789653 </v>
   <v>      -0.33435161       0.33431608       0.15800007 </v>
   <v>       0.10703929      -0.11028901       0.23431260 </v>
   <v>      -0.22039185      -0.10642600       0.23552554 </v>
   <v>       0.10933462       0.22008250       0.23608005 </v>
   <v>      -0.22558333       0.22418349       0.23487016 </v>
   <v>      -0.22392951      -0.44614685       0.23576063 </v>
   <v>       0.44652352       0.22801047       0.23577138 </v>
   <v>       0.43982774      -0.44375755       0.23447035 </v>
   <v>       0.11317572      -0.43966120       0.23580006 </v>
   <v>       0.44276843      -0.11322699       0.23574643 </v>
   <v>       0.32868480       0.00374951       0.30932831 </v>
   <v>      -0.33948008      -0.33062043       0.30962753 </v>
   <v>      -0.00244770       0.33716000       0.31071416 </v>
   <v>      -0.00174729      -0.32815054       0.31323403 </v>
   <v>      -0.33538235       0.00468667       0.31305873 </v>
   <v>       0.32965415       0.33891853       0.31430230 </v>
   <v>      -0.00693794      -0.00078098       0.32926484 </v>
   <v>      -0.33911370       0.33473180       0.32807676 </v>
   <v>       0.32849135      -0.32979787       0.33059163 </v>
   <v>       0.23346845      -0.06437512       0.38307115 </v>
   <v>      -0.13548516       0.21303665       0.38241501 </v>
   <v>      -0.03021866      -0.01716312       0.39623890 </v>
   <v>      -0.43136182      -0.41000980       0.38548999 </v>
   <v>      -0.04844294       0.06682072       0.40876027 </v>
   <v>       0.06088726      -0.01696647       0.41058931 </v>
   <v>      -0.28069443      -0.28633074       0.40995952 </v>
   <v>       0.25295206      -0.05267855       0.41339352 </v>
   <v>      -0.10767913       0.23712003       0.41222010 </v>
   <v>      -0.00332062       0.33807721       0.41141670 </v>
   <v>       0.35360191       0.05137418       0.41578236 </v>
   <v>      -0.34658672       0.33906356       0.39393672 </v>
   <v>       0.32081619      -0.31224383       0.39668626 </v>
   <v>      -0.38241325      -0.38897030       0.41336512 </v>
   <v>       0.30435310      -0.22493280       0.40780805 </v>
   <v>      -0.34532563       0.43507543       0.40609440 </v>
   <v>      -0.26668268       0.32016445       0.40828508 </v>
   <v>       0.40619131      -0.31465639       0.41278765 </v>
  </varray>
 </structure>
 <varray name="primitive_index" >
  <v type="int" >        1 </v>
  <v type="int" >        7 </v>
  <v type="int" >       25 </v>
  <v type="int" >       19 </v>
  <v type="int" >       10 </v>
  <v type="int" >        4 </v>
  <v type="int" >       13 </v>
  <v type="int" >       44 </v>
  <v type="int" >       32 </v>
  <v type="int" >       28 </v>
  <v type="int" >       42 </v>
  <v type="int" >       40 </v>
  <v type="int" >       34 </v>
  <v type="int" >        2 </v>
  <v type="int" >       16 </v>
  <v type="int" >       22 </v>
  <v type="int" >       36 </v>
  <v type="int" >       38 </v>
  <v type="int" >       30 </v>
  <v type="int" >        8 </v>
  <v type="int" >       11 </v>
  <v type="int" >       14 </v>
  <v type="int" >       26 </v>
  <v type="int" >       20 </v>
  <v type="int" >        5 </v>
  <v type="int" >       17 </v>
  <v type="int" >       23 </v>
  <v type="int" >       33 </v>
  <v type="int" >       45 </v>
  <v type="int" >       29 </v>
  <v type="int" >       41 </v>
  <v type="int" >       43 </v>
  <v type="int" >       35 </v>
  <v type="int" >       37 </v>
  <v type="int" >       31 </v>
  <v type="int" >       39 </v>
  <v type="int" >       12 </v>
  <v type="int" >       27 </v>
  <v type="int" >        6 </v>
  <v type="int" >        9 </v>
  <v type="int" >       21 </v>
  <v type="int" >       15 </v>
  <v type="int" >        3 </v>
  <v type="int" >       24 </v>
  <v type="int" >       18 </v>
  <v type="int" >       55 </v>
  <v type="int" >       57 </v>
  <v type="int" >       46 </v>
  <v type="int" >       61 </v>
  <v type="int" >       52 </v>
  <v type="int" >       53 </v>
  <v type="int" >       60 </v>
  <v type="int" >       47 </v>
  <v type="int" >       48 </v>
  <v type="int" >       56 </v>
  <v type="int" >       54 </v>
  <v type="int" >       49 </v>
  <v type="int" >       51 </v>
  <v type="int" >       50 </v>
  <v type="int" >       62 </v>
  <v type="int" >       58 </v>
  <v type="int" >       59 </v>
  <v type="int" >       63 </v>
 </varray>
 <kpoints>
  <generation param="Gamma">
   <v type="int" name="divisions">       3        3        1 </v>
   <v name="usershift">      0.00000000       0.00000000       0.00000000 </v>
   <v name="genvec1">      0.33333333       0.00000000       0.00000000 </v>
   <v name="genvec2">      0.00000000       0.33333333       0.00000000 </v>
   <v name="genvec3">      0.00000000       0.00000000       1.00000000 </v>
   <v name="shift">      0.00000000       0.00000000       0.00000000 </v>
  </generation>
  <varray name="kpointlist" >
   <v>       0.00000000       0.00000000       0.00000000 </v>
   <v>       0.33333333      -0.00000000       0.00000000 </v>
   <v>       0.00000000       0.33333333       0.00000000 </v>
   <v>       0.33333333       0.33333333       0.00000000 </v>
   <v>      -0.33333333       0.33333333       0.00000000 </v>
  </varray>
  <varray name="weights" >
   <v>       0.11111111 </v>
   <v>       0.22222222 </v>
   <v>       0.22222222 </v>
   <v>       0.22222222 </v>
   <v>       0.22222222 </v>
  </varray>
  <varray name="tetrahedronlist"  type="int" >
   <v type="int" >        2        2        3        3        4 </v>
   <v type="int" >        2        1        2        3        3 </v>
   <v type="int" >        2        1        1        2        3 </v>
   <v type="int" >        2        2        3        4        4 </v>
   <v type="int" >        2        2        2        3        4 </v>
   <v type="int" >        2        1        2        2        3 </v>
   <v type="int" >        2        2        4        4        5 </v>
   <v type="int" >        2        2        2        4        4 </v>
   <v type="int" >        4        2        2        2        4 </v>
   <v type="int" >        2        2        4        5        5 </v>
   <v type="int" >        2        2        2        4        5 </v>
   <v type="int" >        2        1        3        5        5 </v>
   <v type="int" >        2        1        2        5        5 </v>
   <v type="int" >        2        1        2        2        5 </v>
   <v type="int" >        2        1        3        3        5 </v>
   <v type="int" >        2        1        1        3        5 </v>
   <v type="int" >        2        1        1        2        5 </v>
   <v type="int" >        2        3        3        4        5 </v>
   <v type="int" >        4        3        3        3        4 </v>
   <v type="int" >        2        3        4        5        5 </v>
   <v type="int" >        2        3        4        4        5 </v>
   <v type="int" >        2        3        3        4        4 </v>
   <v type="int" >        4        4        5        5        5 </v>
   <v type="int" >        2        4        4        5        5 </v>
  </varray>
  <i name="volumeweight">      0.01851852 </i>
 </kpoints>
 <parameters>
  <separator name="general" >
   <i type="string" name="SYSTEM">Mg_slab_in_a_box</i>
   <i type="logical" name="LCOMPAT"> F  </i>
  </separator>
  <separator name="electronic" >
   <i type="string" name="PREC">accura</i>
   <i name="ENMAX">    520.00000000</i>
   <i name="ENAUG">    605.39200000</i>
   <i name="EDIFF">      0.00000500</i>
   <i type="int" name="IALGO">    48</i>
   <i type="int" name="IWAVPR">    10</i>
   <i type="int" name="NBANDS">   102</i>
   <i name="NELECT">    138.00000000</i>
   <i type="int" name="TURBO">     0</i>
   <i type="int" name="IRESTART">     0</i>
   <i type="int" name="NREBOOT">     0</i>
   <i type="int" name="NMIN">     0</i>
   <i name="EREF">      0.00000000</i>
   <separator name="electronic smearing" >
    <i type="int" name="ISMEAR">    -5</i>
    <i name="SIGMA">      0.20000000</i>
    <i name="KSPACING">      0.50000000</i>
    <i type="logical" name="KGAMMA"> T  </i>
   </separator>
   <separator name="electronic projectors" >
    <i type="logical" name="LREAL"> T  </i>
    <v name="ROPT">     -0.00025000     -0.00025000     -0.00025000</v>
    <i type="int" name="LMAXPAW">  -100</i>
    <i type="int" name="LMAXMIX">     2</i>
    <i type="logical" name="NLSPLINE"> F  </i>
   </separator>
   <separator name="electronic startup" >
    <i type="int" name="ISTART">     0</i>
    <i type="int" name="ICHARG">     2</i>
    <i type="int" name="INIWAV">     1</i>
   </separator>
   <separator name="electronic spin" >
    <i type="int" name="ISPIN">     1</i>
    <i type="logical" name="LNONCOLLINEAR"> F  </i>
    <v name="MAGMOM">      1.00000000      1.00000000      1.00000000      1.00000000      1.00000000      1.00000000      1.00000000      1.00000000      1.00000000      1.00000000      1.00000000      1.00000000      1.00000000      1.00000000      1.00000000      1.00000000      1.00000000      1.00000000      1.00000000      1.00000000
      1.00000000      1.00000000      1.00000000      1.00000000      1.00000000      1.00000000      1.00000000      1.00000000      1.00000000      1.00000000      1.00000000      1.00000000      1.00000000      1.00000000      1.00000000      1.00000000      1.00000000      1.00000000      1.00000000      1.00000000
      1.00000000      1.00000000      1.00000000      1.00000000      1.00000000      1.00000000      1.00000000      1.00000000      1.00000000      1.00000000      1.00000000      1.00000000      1.00000000      1.00000000      1.00000000      1.00000000      1.00000000      1.00000000      1.00000000      1.00000000
      1.00000000      1.00000000      1.00000000</v>
    <i name="NUPDOWN">     -1.00000000</i>
    <i type="logical" name="LSORBIT"> F  </i>
    <v name="SAXIS">      0.00000000      0.00000000      1.00000000</v>
    <i type="logical" name="LSPIRAL"> F  </i>
    <v name="QSPIRAL">      0.00000000      0.00000000      0.00000000</v>
    <i type="logical" name="LZEROZ"> F  </i>
   </separator>
   <separator name="electronic exchange-correlation" >
    <i type="logical" name="LASPH"> T  </i>
    <i type="logical" name="LMETAGGA"> F  </i>
   </separator>
   <separator name="electronic convergence" >
    <i type="int" name="NELM">   300</i>
    <i type="int" name="NELMDL">   -12</i>
    <i type="int" name="NELMIN">     6</i>
    <i name="ENINI">    520.00000000</i>
    <separator name="electronic convergence detail" >
     <i type="logical" name="LDIAG"> T  </i>
     <i type="logical" name="LSUBROT"> F  </i>
     <i name="WEIMIN">      0.00000000</i>
     <i name="EBREAK">      0.00000001</i>
     <i name="DEPER">      0.30000000</i>
     <i type="int" name="NRMM">     4</i>
     <i name="TIME">      0.40000000</i>
    </separator>
   </separator>
   <separator name="electronic mixer" >
    <i name="AMIX">      0.40000000</i>
    <i name="BMIX">      1.00000000</i>
    <i name="AMIN">      0.10000000</i>
    <i name="AMIX_MAG">      1.60000000</i>
    <i name="BMIX_MAG">      1.00000000</i>
    <separator name="electronic mixer details" >
     <i type="int" name="IMIX">     4</i>
     <i type="logical" name="MIXFIRST"> F  </i>
     <i type="int" name="MAXMIX">   -45</i>
     <i name="WC">    100.00000000</i>
     <i type="int" name="INIMIX">     1</i>
     <i type="int" name="MIXPRE">     1</i>
     <i type="int" name="MREMOVE">     5</i>
    </separator>
   </separator>
   <separator name="electronic dipolcorrection" >
    <i type="logical" name="LDIPOL"> T  </i>
    <i type="logical" name="LMONO"> F  </i>
    <i type="int" name="IDIPOL">     3</i>
    <i name="EPSILON">      1.00000000</i>
    <v name="DIPOL">   -100.00000000   -100.00000000   -100.00000000</v>
    <i name="EFIELD">      0.00000000</i>
   </separator>
  </separator>
  <separator name="grids" >
   <i type="int" name="NGX">    72</i>
   <i type="int" name="NGY">    72</i>
   <i type="int" name="NGZ">   250</i>
   <i type="int" name="NGXF">   144</i>
   <i type="int" name="NGYF">   144</i>
   <i type="int" name="NGZF">   500</i>
   <i type="logical" name="ADDGRID"> F  </i>
  </separator>
  <separator name="ionic" >
   <i type="int" name="NSW">     0</i>
   <i type="int" name="IBRION">    -1</i>
   <i type="int" name="MDALGO">     0</i>
   <i type="int" name="ISIF">     2</i>
   <i name="PSTRESS">      0.00000000</i>
   <i name="EDIFFG">      0.00005000</i>
   <i type="int" name="NFREE">     0</i>
   <i name="POTIM">      0.50000000</i>
   <i name="SMASS">     -3.00000000</i>
   <i name="SCALEE">      1.00000000</i>
  </separator>
  <separator name="ionic md" >
   <i name="TEBEG">      0.00010000</i>
   <i name="TEEND">      0.00010000</i>
   <i type="int" name="NBLOCK">     1</i>
   <i type="int" name="KBLOCK">     1</i>
   <i type="int" name="NPACO">   256</i>
   <i name="APACO">     16.00000000</i>
  </separator>
  <separator name="symmetry" >
   <i type="int" name="ISYM">     2</i>
   <i name="SYMPREC">      0.00001000</i>
  </separator>
  <separator name="dos" >
   <i type="int" name="LORBIT">     0</i>
   <v name="RWIGS">     -1.00000000     -1.00000000     -1.00000000</v>
   <i type="int" name="NEDOS">   301</i>
   <i name="EMIN">     10.00000000</i>
   <i name="EMAX">    -10.00000000</i>
   <i name="EFERMI">      0.00000000</i>
  </separator>
  <separator name="writing" >
   <i type="int" name="NWRITE">     2</i>
   <i type="logical" name="LWAVE"> F  </i>
   <i type="logical" name="LDOWNSAMPLE"> F  </i>
   <i type="logical" name="LCHARG"> T  </i>
   <i type="logical" name="LPARD"> F  </i>
   <i type="logical" name="LVTOT"> F  </i>
   <i type="logical" name="LVHAR"> T  </i>
   <i type="logical" name="LELF"> F  </i>
   <i type="logical" name="LOPTICS"> F  </i>
   <v name="STM">      0.00000000      0.00000000      0.00000000      0.00000000      0.00000000      0.00000000      0.00000000</v>
  </separator>
  <separator name="performance" >
   <i type="int" name="NPAR">     3</i>
   <i type="int" name="NSIM">     4</i>
   <i type="int" name="NBLK">    -1</i>
   <i type="logical" name="LPLANE"> T  </i>
   <i type="logical" name="LSCALAPACK"> T  </i>
   <i type="logical" name="LSCAAWARE"> F  </i>
   <i type="logical" name="LSCALU"> F  </i>
   <i type="logical" name="LASYNC"> F  </i>
   <i type="logical" name="LORBITALREAL"> F  </i>
  </separator>
  <separator name="miscellaneous" >
   <i type="int" name="IDIOT">     3</i>
   <i type="int" name="ISPECIAL">     0</i>
   <i type="logical" name="LMUSIC"> F  </i>
   <v name="POMASS">     24.30500000     16.00000000      1.00000000</v>
   <v name="DARWINR">      0.00000000      0.00000000      0.00000000</v>
   <v name="DARWINV">      1.00000000      1.00000000      1.00000000</v>
   <i type="logical" name="LCORR"> T  </i>
  </separator>
  <i type="logical" name="GGA_COMPAT"> T  </i>
  <i type="logical" name="LBERRY"> F  </i>
  <i type="int" name="ICORELEVEL">     0</i>
  <i type="logical" name="LDAU"> F  </i>
  <i type="int" name="I_CONSTRAINED_M">     0</i>
  <separator name="electronic exchange-correlation" >
   <i type="string" name="GGA">BO</i>
   <i type="int" name="VOSKOWN">     0</i>
   <i type="logical" name="LHFCALC"> F  </i>
   <i type="string" name="PRECFOCK"></i>
   <i type="logical" name="LSYMGRAD"> F  </i>
   <i type="logical" name="LHFONE"> F  </i>
   <i type="logical" name="LRHFCALC"> F  </i>
   <i type="logical" name="LTHOMAS"> F  </i>
   <i type="logical" name="LMODELHF"> F  </i>
   <i name="ENCUT4O">     -1.00000000</i>
   <i type="int" name="EXXOEP">     0</i>
   <i type="int" name="FOURORBIT">     0</i>
   <i name="AEXX">      0.00000000</i>
   <i name="HFALPHA">      0.00000000</i>
   <i name="MCALPHA">      0.00000000</i>
   <i name="ALDAX">      1.00000000</i>
   <i name="AGGAX">      1.00000000</i>
   <i name="ALDAC">      1.00000000</i>
   <i name="AGGAC">      0.00000000</i>
   <i type="int" name="NKREDX">     1</i>
   <i type="int" name="NKREDY">     1</i>
   <i type="int" name="NKREDZ">     1</i>
   <i type="logical" name="SHIFTRED"> F  </i>
   <i type="logical" name="ODDONLY"> F  </i>
   <i type="logical" name="EVENONLY"> F  </i>
   <i type="int" name="LMAXFOCK">     0</i>
   <i type="int" name="NMAXFOCKAE">     0</i>
   <i type="logical" name="LFOCKAEDFT"> F  </i>
   <i name="HFSCREEN">      0.00000000</i>
   <i name="HFSCREENC">      0.00000000</i>
   <i type="int" name="NBANDSGWLOW">     0</i>
  </separator>
  <separator name="vdW DFT" >
   <i type="logical" name="LUSE_VDW"> T  </i>
   <i name="Zab_VDW">     -0.84910000</i>
   <i name="PARAM1">      0.18333333</i>
   <i name="PARAM2">      0.22000000</i>
   <i name="PARAM3">      0.00000000</i>
  </separator>
  <separator name="model GW" >
   <i type="int" name="MODEL_GW">     0</i>
   <i name="MODEL_EPS0">     24.57100561</i>
   <i name="MODEL_ALPHA">      1.00000000</i>
  </separator>
  <separator name="linear response parameters" >
   <i type="logical" name="LEPSILON"> F  </i>
   <i type="logical" name="LRPA"> F  </i>
   <i type="logical" name="LNABLA"> F  </i>
   <i type="logical" name="LVEL"> F  </i>
   <i type="int" name="KINTER">     0</i>
   <i name="CSHIFT">      0.10000000</i>
   <i name="OMEGAMAX">     -1.00000000</i>
   <i name="DEG_THRESHOLD">      0.00200000</i>
   <i name="RTIME">     -0.10000000</i>
   <i name="WPLASMAI">      0.00000000</i>
   <v name="DFIELD">      0.00000000      0.00000000      0.00000000</v>
   <v name="WPLASMA">      0.00000000      0.00000000      0.00000000      0.00000000      0.00000000      0.00000000      0.00000000      0.00000000      0.00000000</v>
  </separator>
  <separator name="orbital magnetization" >
   <i type="logical" name="NUCIND"> F  </i>
   <v name="MAGPOS">      0.00000000      0.00000000      0.00000000</v>
   <i type="logical" name="LNICSALL"> T  </i>
   <i type="logical" name="ORBITALMAG"> F  </i>
   <i type="logical" name="LMAGBLOCH"> F  </i>
   <i type="logical" name="LCHIMAG"> F  </i>
   <i type="logical" name="LGAUGE"> T  </i>
   <i type="int" name="MAGATOM">     0</i>
   <v name="MAGDIPOL">      0.00000000      0.00000000      0.00000000</v>
   <v name="AVECCONST">      0.00000000      0.00000000      0.00000000</v>
  </separator>
  <separator name="response functions" >
   <i type="logical" name="LADDER"> F  </i>
   <i type="logical" name="LRPAFORCE"> F  </i>
   <i type="logical" name="LFXC"> F  </i>
   <i type="logical" name="LHARTREE"> T  </i>
   <i type="int" name="IBSE">     0</i>
   <v type="int" name="KPOINT">    -1     0     0     0</v>
   <i type="logical" name="LTCTE"> F  </i>
   <i type="logical" name="LTETE"> F  </i>
   <i type="logical" name="LTRIPLET"> F  </i>
   <i type="logical" name="LFXCEPS"> F  </i>
   <i type="logical" name="LFXHEG"> F  </i>
   <i type="int" name="NATURALO">     2</i>
   <i type="logical" name="L2ORDER"> F  </i>
   <i type="logical" name="LMP2LT"> F  </i>
   <i type="logical" name="LUSEW"> F  </i>
   <i name="ENCUTGW">     -2.00000000</i>
   <i name="ENCUTGWSOFT">     -2.00000000</i>
   <i name="ENCUTLF">     -1.00000000</i>
   <i type="int" name="LMAXMP2">    -1</i>
   <i name="SCISSOR">      0.00000000</i>
   <i type="int" name="NOMEGA">     0</i>
   <i type="int" name="NOMEGAR">     0</i>
   <i type="int" name="NBANDSGW">    -1</i>
   <i type="int" name="NBANDSO">    -1</i>
   <i type="int" name="NBANDSV">    -1</i>
   <i type="int" name="NELM">   300</i>
   <i type="int" name="NELMHF">     1</i>
   <i type="int" name="DIM">     3</i>
   <i type="int" name="ANTIRES">     0</i>
   <i name="OMEGAMAX">    -30.00000000</i>
   <i name="OMEGAMIN">    -30.00000000</i>
   <i name="OMEGATL">   -200.00000000</i>
   <i type="int" name="OMEGAGRID">   140</i>
   <i name="CSHIFT">     -0.10000000</i>
   <i type="logical" name="SELFENERGY"> F  </i>
   <i type="logical" name="LSPECTRAL"> F  </i>
   <i type="logical" name="LSPECTRALGW"> F  </i>
   <i type="logical" name="LSINGLES"> F  </i>
   <i type="logical" name="LFERMIGW"> F  </i>
   <i type="logical" name="ODDONLYGW"> F  </i>
   <i type="logical" name="EVENONLYGW"> F  </i>
   <i type="int" name="NKREDLFX">     1</i>
   <i type="int" name="NKREDLFY">     1</i>
   <i type="int" name="NKREDLFZ">     1</i>
   <i type="int" name="MAXMEM">  2800</i>
   <i type="int" name="TELESCOPE">     0</i>
   <i type="int" name="TAUPAR">     1</i>
   <i type="int" name="OMEGAPAR">    -1</i>
   <i name="LAMBDA">      1.00000000</i>
  </separator>
  <separator name="External order field" >
   <i name="OFIELD_KAPPA">      0.00000000</i>
   <v name="OFIELD_K">      0.00000000      0.00000000      0.00000000</v>
   <i name="OFIELD_Q6_NEAR">      0.00000000</i>
   <i name="OFIELD_Q6_FAR">      0.00000000</i>
   <i name="OFIELD_A">      0.00000000</i>
  </separator>
 </parameters>
 <atominfo>
  <atoms>      63 </atoms>
  <types>       3 </types>
  <array name="atoms" >
   <dimension dim="1">ion</dimension>
   <field type="string">element</field>
   <field type="int">atomtype</field>
   <set>
    <rc><c>Mg</c><c>   1</c></rc>
    <rc><c>Mg</c><c>   1</c></rc>
    <rc><c>Mg</c><c>   1</c></rc>
    <rc><c>Mg</c><c>   1</c></rc>
    <rc><c>Mg</c><c>   1</c></rc>
    <rc><c>Mg</c><c>   1</c></rc>
    <rc><c>Mg</c><c>   1</c></rc>
    <rc><c>Mg</c><c>   1</c></rc>
    <rc><c>Mg</c><c>   1</c></rc>
    <rc><c>Mg</c><c>   1</c></rc>
    <rc><c>Mg</c><c>   1</c></rc>
    <rc><c>Mg</c><c>   1</c></rc>
    <rc><c>Mg</c><c>   1</c></rc>
    <rc><c>Mg</c><c>   1</c></rc>
    <rc><c>Mg</c><c>   1</c></rc>
    <rc><c>Mg</c><c>   1</c></rc>
    <rc><c>Mg</c><c>   1</c></rc>
    <rc><c>Mg</c><c>   1</c></rc>
    <rc><c>Mg</c><c>   1</c></rc>
    <rc><c>Mg</c><c>   1</c></rc>
    <rc><c>Mg</c><c>   1</c></rc>
    <rc><c>Mg</c><c>   1</c></rc>
    <rc><c>Mg</c><c>   1</c></rc>
    <rc><c>Mg</c><c>   1</c></rc>
    <rc><c>Mg</c><c>   1</c></rc>
    <rc><c>Mg</c><c>   1</c></rc>
    <rc><c>Mg</c><c>   1</c></rc>
    <rc><c>Mg</c><c>   1</c></rc>
    <rc><c>Mg</c><c>   1</c></rc>
    <rc><c>Mg</c><c>   1</c></rc>
    <rc><c>Mg</c><c>   1</c></rc>
    <rc><c>Mg</c><c>   1</c></rc>
    <rc><c>Mg</c><c>   1</c></rc>
    <rc><c>Mg</c><c>   1</c></rc>
    <rc><c>Mg</c><c>   1</c></rc>
    <rc><c>Mg</c><c>   1</c></rc>
    <rc><c>Mg</c><c>   1</c></rc>
    <rc><c>Mg</c><c>   1</c></rc>
    <rc><c>Mg</c><c>   1</c></rc>
    <rc><c>Mg</c><c>   1</c></rc>
    <rc><c>Mg</c><c>   1</c></rc>
    <rc><c>Mg</c><c>   1</c></rc>
    <rc><c>Mg</c><c>   1</c></rc>
    <rc><c>Mg</c><c>   1</c></rc>
    <rc><c>Mg</c><c>   1</c></rc>
    <rc><c>O </c><c>   2</c></rc>
    <rc><c>O </c><c>   2</c></rc>
    <rc><c>O </c><c>   2</c></rc>
    <rc><c>O </c><c>   2</c></rc>
    <rc><c>O </c><c>   2</c></rc>
    <rc><c>O </c><c>   2</c></rc>
    <rc><c>H </c><c>   3</c></rc>
    <rc><c>H </c><c>   3</c></rc>
    <rc><c>H </c><c>   3</c></rc>
    <rc><c>H </c><c>   3</c></rc>
    <rc><c>H </c><c>   3</c></rc>
    <rc><c>H </c><c>   3</c></rc>
    <rc><c>H </c><c>   3</c></rc>
    <rc><c>H </c><c>   3</c></rc>
    <rc><c>H </c><c>   3</c></rc>
    <rc><c>H </c><c>   3</c></rc>
    <rc><c>H </c><c>   3</c></rc>
    <rc><c>H </c><c>   3</c></rc>
   </set>
  </array>
  <array name="atomtypes" >
   <dimension dim="1">type</dimension>
   <field type="int">atomspertype</field>
   <field type="string">element</field>
   <field>mass</field>
   <field>valence</field>
   <field type="string">pseudopotential</field>
   <set>
    <rc><c>  45</c><c>Mg</c><c>     24.30500000</c><c>      2.00000000</c><c>  PAW_PBE Mg 13Apr2007                  </c></rc>
    <rc><c>   6</c><c>O </c><c>     16.00000000</c><c>      6.00000000</c><c>  PAW_PBE O 08Apr2002                   </c></rc>
    <rc><c>  12</c><c>H </c><c>      1.00000000</c><c>      1.00000000</c><c>  PAW_PBE H 15Jun2001                   </c></rc>
   </set>
  </array>
 </atominfo>
 <structure name="initialpos" >
  <crystal>
   <varray name="basis" >
    <v>       9.55575275       0.00000000       0.00000000 </v>
    <v>      -4.77787638       8.27552464       0.00000000 </v>
    <v>       0.00000000       0.00000000      32.62509537 </v>
   </varray>
   <i name="volume">   2579.95558872 </i>
   <varray name="rec_basis" >
    <v>       0.10464900       0.06041913       0.00000000 </v>
    <v>       0.00000000       0.12083826       0.00000000 </v>
    <v>       0.00000000       0.00000000       0.03065125 </v>
   </varray>
  </crystal>
  <varray name="positions" >
   <v>       0.00000000       0.00000000       0.00000000 </v>
   <v>       0.99899185       0.00119768       0.15789616 </v>
   <v>       0.99306206       0.99921902       0.32926484 </v>
   <v>       0.00000001       0.33333336       0.00000000 </v>
   <v>       0.99973003       0.33440155       0.15731866 </v>
   <v>       0.99755230       0.33716000       0.31071416 </v>
   <v>       0.00000002       0.66666672       0.00000000 </v>
   <v>       0.99879142       0.66674227       0.15715877 </v>
   <v>       0.99825271       0.67184946       0.31323403 </v>
   <v>       0.33333334       0.00000000       0.00000000 </v>
   <v>       0.33322267       0.00107267       0.15720447 </v>
   <v>       0.32868480       0.00374951       0.30932831 </v>
   <v>       0.33333335       0.33333336       0.00000000 </v>
   <v>       0.33209461       0.33347254       0.15718829 </v>
   <v>       0.32965415       0.33891853       0.31430230 </v>
   <v>       0.33333336       0.66666672       0.00000000 </v>
   <v>       0.33225816       0.66784871       0.15789653 </v>
   <v>       0.32849135       0.67020213       0.33059163 </v>
   <v>       0.66666668       0.00000000       0.00000000 </v>
   <v>       0.66559919       0.00048475       0.15719747 </v>
   <v>       0.66461765       0.00468667       0.31305873 </v>
   <v>       0.66666668       0.33333336       0.00000000 </v>
   <v>       0.66564839       0.33431608       0.15800007 </v>
   <v>       0.66088630       0.33473180       0.32807676 </v>
   <v>       0.66666670       0.66666672       0.00000000 </v>
   <v>       0.66636733       0.66768800       0.15721776 </v>
   <v>       0.66051992       0.66937957       0.30962753 </v>
   <v>       0.11111113       0.22222222       0.07982145 </v>
   <v>       0.10933462       0.22008250       0.23608005 </v>
   <v>       0.11111114       0.55555561       0.07982145 </v>
   <v>       0.11317572       0.56033880       0.23580006 </v>
   <v>       0.11111116       0.88888894       0.07982145 </v>
   <v>       0.10703929       0.88971099       0.23431260 </v>
   <v>       0.44444450       0.22222222       0.07982145 </v>
   <v>       0.44652352       0.22801047       0.23577138 </v>
   <v>       0.44444450       0.55555561       0.07982145 </v>
   <v>       0.43982774       0.55624245       0.23447035 </v>
   <v>       0.44444451       0.88888894       0.07982145 </v>
   <v>       0.44276843       0.88677301       0.23574643 </v>
   <v>       0.77777779       0.22222222       0.07982145 </v>
   <v>       0.77441667       0.22418349       0.23487016 </v>
   <v>       0.77777781       0.55555561       0.07982145 </v>
   <v>       0.77607049       0.55385315       0.23576063 </v>
   <v>       0.77777784       0.88888894       0.07982145 </v>
   <v>       0.77960815       0.89357400       0.23552554 </v>
   <v>       0.96978134       0.98283688       0.39623890 </v>
   <v>       0.25295206       0.94732145       0.41339352 </v>
   <v>       0.89232087       0.23712003       0.41222010 </v>
   <v>       0.65341328       0.33906356       0.39393672 </v>
   <v>       0.61758675       0.61102970       0.41336512 </v>
   <v>       0.32081619       0.68775617       0.39668626 </v>
   <v>       0.95155706       0.06682072       0.40876027 </v>
   <v>       0.06088726       0.98303353       0.41058931 </v>
   <v>       0.35360191       0.05137418       0.41578236 </v>
   <v>       0.23346845       0.93562488       0.38307115 </v>
   <v>       0.99667938       0.33807721       0.41141670 </v>
   <v>       0.86451484       0.21303665       0.38241501 </v>
   <v>       0.65467437       0.43507543       0.40609440 </v>
   <v>       0.73331732       0.32016445       0.40828508 </v>
   <v>       0.71930557       0.71366926       0.40995952 </v>
   <v>       0.56863818       0.58999020       0.38548999 </v>
   <v>       0.30435310       0.77506720       0.40780805 </v>
   <v>       0.40619131       0.68534361       0.41278765 </v>
  </varray>
  <varray name="selective"  type="logical" >
   <v type="logical" >  F  F  F </v>
   <v type="logical" >  T  T  T </v>
   <v type="logical" >  T  T  T </v>
   <v type="logical" >  F  F  F </v>
   <v type="logical" >  T  T  T </v>
   <v type="logical" >  T  T  T </v>
   <v type="logical" >  F  F  F </v>
   <v type="logical" >  T  T  T </v>
   <v type="logical" >  T  T  T </v>
   <v type="logical" >  F  F  F </v>
   <v type="logical" >  T  T  T </v>
   <v type="logical" >  T  T  T </v>
   <v type="logical" >  F  F  F </v>
   <v type="logical" >  T  T  T </v>
   <v type="logical" >  T  T  T </v>
   <v type="logical" >  F  F  F </v>
   <v type="logical" >  T  T  T </v>
   <v type="logical" >  T  T  T </v>
   <v type="logical" >  F  F  F </v>
   <v type="logical" >  T  T  T </v>
   <v type="logical" >  T  T  T </v>
   <v type="logical" >  F  F  F </v>
   <v type="logical" >  T  T  T </v>
   <v type="logical" >  T  T  T </v>
   <v type="logical" >  F  F  F </v>
   <v type="logical" >  T  T  T </v>
   <v type="logical" >  T  T  T </v>
   <v type="logical" >  F  F  F </v>
   <v type="logical" >  T  T  T </v>
   <v type="logical" >  F  F  F </v>
   <v type="logical" >  T  T  T </v>
   <v type="logical" >  F  F  F </v>
   <v type="logical" >  T  T  T </v>
   <v type="logical" >  F  F  F </v>
   <v type="logical" >  T  T  T </v>
   <v type="logical" >  F  F  F </v>
   <v type="logical" >  T  T  T </v>
   <v type="logical" >  F  F  F </v>
   <v type="logical" >  T  T  T </v>
   <v type="logical" >  F  F  F </v>
   <v type="logical" >  T  T  T </v>
   <v type="logical" >  F  F  F </v>
   <v type="logical" >  T  T  T </v>
   <v type="logical" >  F  F  F </v>
   <v type="logical" >  T  T  T </v>
   <v type="logical" >  T  T  T </v>
   <v type="logical" >  T  T  T </v>
   <v type="logical" >  T  T  T </v>
   <v type="logical" >  T  T  T </v>
   <v type="logical" >  T  T  T </v>
   <v type="logical" >  T  T  T </v>
   <v type="logical" >  T  T  T </v>
   <v type="logical" >  T  T  T </v>
   <v type="logical" >  T  T  T </v>
   <v type="logical" >  T  T  T </v>
   <v type="logical" >  T  T  T </v>
   <v type="logical" >  T  T  T </v>
   <v type="logical" >  T  T  T </v>
   <v type="logical" >  T  T  T </v>
   <v type="logical" >  T  T  T </v>
   <v type="logical" >  T  T  T </v>
   <v type="logical" >  T  T  T </v>
   <v type="logical" >  T  T  T </v>
  </varray>
  <nose>
   <v>      -3.00000000       0.00000000       0.00010000       0.00010000 </v>
  </nose>
 </structure>
 <calculation>
  <scstep>
   <time name="diag">    0.48    0.48</time>
   <time name="diis">    1.05    1.05</time>
   <time name="orth">    0.07    0.07</time>
   <time name="total">    7.08    7.28</time>
   <dipole>
    <v name="dipole">      0.00000000       0.00000000      -0.00040012 </v>
    <i name="Tr[quadrupol]">  -1866.78955053 </i>
    <i name="Echarged">      0.00000000 </i>
    <i name="Edipol_quadrupol">      0.00000000 </i>
    <i name="Eion">      0.00000000 </i>
   </dipole>
   <energy>
    <i name="alphaZ">     63.16531280 </i>
    <i name="ewald">  12561.86744252 </i>
    <i name="hartreedc"> -15787.20230982 </i>
    <i name="XCdc">  -2051.07146346 </i>
    <i name="pawpsdc">   5135.15659847 </i>
    <i name="pawaedc">  -2719.01140655 </i>
    <i name="eentropy">      0.00000000 </i>
    <i name="bandstr">    211.79395199 </i>
    <i name="atom">   3827.98814510 </i>
    <i name="e_fr_energy">   1242.68627105 </i>
    <i name="e_wo_entrp">   1242.68627105 </i>
    <i name="e_0_energy">   1242.68627105 </i>
   </energy>
  </scstep>
  <scstep>
   <time name="diag">    0.48    0.51</time>
   <time name="diis">    1.05    1.05</time>
   <time name="orth">    0.07    0.07</time>
   <time name="total">    1.60    1.63</time>
   <dipole>
    <v name="dipole">      0.00000000       0.00000000      -0.00040012 </v>
    <i name="Tr[quadrupol]">  -1866.78955053 </i>
    <i name="Echarged">      0.00000000 </i>
    <i name="Edipol_quadrupol">      0.00000000 </i>
    <i name="Eion">      0.00000000 </i>
   </dipole>
   <energy>
    <i name="e_fr_energy">    544.78493485 </i>
    <i name="e_wo_entrp">    544.78493485 </i>
    <i name="e_0_energy">    544.78493485 </i>
   </energy>
  </scstep>
  <scstep>
   <time name="diag">    0.48    0.51</time>
   <time name="diis">    1.05    1.05</time>
   <time name="orth">    0.07    0.07</time>
   <time name="total">    1.61    1.63</time>
   <dipole>
    <v name="dipole">      0.00000000       0.00000000      -0.00040012 </v>
    <i name="Tr[quadrupol]">  -1866.78955053 </i>
    <i name="Echarged">      0.00000000 </i>
    <i name="Edipol_quadrupol">      0.00000000 </i>
    <i name="Eion">      0.00000000 </i>
   </dipole>
   <energy>
    <i name="e_fr_energy">    311.22651322 </i>
    <i name="e_wo_entrp">    311.22651322 </i>
    <i name="e_0_energy">    311.22651322 </i>
   </energy>
  </scstep>
  <scstep>
   <time name="diag">    0.49    0.51</time>
   <time name="diis">    1.05    1.05</time>
   <time name="orth">    0.07    0.07</time>
   <time name="total">    1.62    1.63</time>
   <dipole>
    <v name="dipole">      0.00000000       0.00000000      -0.00040012 </v>
    <i name="Tr[quadrupol]">  -1866.78955053 </i>
    <i name="Echarged">      0.00000000 </i>
    <i name="Edipol_quadrupol">      0.00000000 </i>
    <i name="Eion">      0.00000000 </i>
   </dipole>
   <energy>
    <i name="e_fr_energy">    135.46244556 </i>
    <i name="e_wo_entrp">    135.46244556 </i>
    <i name="e_0_energy">    135.46244556 </i>
   </energy>
  </scstep>
  <scstep>
   <time name="diag">    0.49    0.51</time>
   <time name="diis">    1.06    1.06</time>
   <time name="orth">    0.07    0.07</time>
   <time name="total">    1.62    1.64</time>
   <dipole>
    <v name="dipole">      0.00000000       0.00000000      -0.00040012 </v>
    <i name="Tr[quadrupol]">  -1866.78955053 </i>
    <i name="Echarged">      0.00000000 </i>
    <i name="Edipol_quadrupol">      0.00000000 </i>
    <i name="Eion">      0.00000000 </i>
   </dipole>
   <energy>
    <i name="e_fr_energy">     17.85956718 </i>
    <i name="e_wo_entrp">     17.85956718 </i>
    <i name="e_0_energy">     17.85956718 </i>
   </energy>
  </scstep>
  <scstep>
   <time name="diag">    0.49    0.51</time>
   <time name="diis">    1.07    1.07</time>
   <time name="orth">    0.07    0.07</time>
   <time name="total">    1.64    1.66</time>
   <dipole>
    <v name="dipole">      0.00000000       0.00000000      -0.00040012 </v>
    <i name="Tr[quadrupol]">  -1866.78955053 </i>
    <i name="Echarged">      0.00000000 </i>
    <i name="Edipol_quadrupol">      0.00000000 </i>
    <i name="Eion">      0.00000000 </i>
   </dipole>
   <energy>
    <i name="e_fr_energy">    -44.53485646 </i>
    <i name="e_wo_entrp">    -44.53485646 </i>
    <i name="e_0_energy">    -44.53485646 </i>
   </energy>
  </scstep>
  <scstep>
   <time name="diag">    0.49    0.51</time>
   <time name="diis">    1.05    1.05</time>
   <time name="orth">    0.07    0.07</time>
   <time name="total">    1.61    1.63</time>
   <dipole>
    <v name="dipole">      0.00000000       0.00000000      -0.00040012 </v>
    <i name="Tr[quadrupol]">  -1866.78955053 </i>
    <i name="Echarged">      0.00000000 </i>
    <i name="Edipol_quadrupol">      0.00000000 </i>
    <i name="Eion">      0.00000000 </i>
   </dipole>
   <energy>
    <i name="e_fr_energy">    -69.49904516 </i>
    <i name="e_wo_entrp">    -69.49904516 </i>
    <i name="e_0_energy">    -69.49904516 </i>
   </energy>
  </scstep>
  <scstep>
   <time name="diag">    0.48    0.51</time>
   <time name="diis">    1.05    1.05</time>
   <time name="orth">    0.07    0.07</time>
   <time name="total">    1.61    1.63</time>
   <dipole>
    <v name="dipole">      0.00000000       0.00000000      -0.00040012 </v>
    <i name="Tr[quadrupol]">  -1866.78955053 </i>
    <i name="Echarged">      0.00000000 </i>
    <i name="Edipol_quadrupol">      0.00000000 </i>
    <i name="Eion">      0.00000000 </i>
   </dipole>
   <energy>
    <i name="e_fr_energy">    -75.89561206 </i>
    <i name="e_wo_entrp">    -75.89561206 </i>
    <i name="e_0_energy">    -75.89561206 </i>
   </energy>
  </scstep>
  <scstep>
   <time name="diag">    0.48    0.51</time>
   <time name="diis">    2.71    2.71</time>
   <time name="orth">    0.07    0.07</time>
   <time name="total">    3.27    3.29</time>
   <dipole>
    <v name="dipole">      0.00000000       0.00000000      -0.00040012 </v>
    <i name="Tr[quadrupol]">  -1866.78955053 </i>
    <i name="Echarged">      0.00000000 </i>
    <i name="Edipol_quadrupol">      0.00000000 </i>
    <i name="Eion">      0.00000000 </i>
   </dipole>
   <energy>
    <i name="e_fr_energy">    -78.05588141 </i>
    <i name="e_wo_entrp">    -78.05588141 </i>
    <i name="e_0_energy">    -78.05588141 </i>
   </energy>
  </scstep>
  <scstep>
   <time name="diag">    0.49    0.51</time>
   <time name="diis">    3.23    3.23</time>
   <time name="orth">    0.07    0.07</time>
   <time name="total">    3.79    3.82</time>
   <dipole>
    <v name="dipole">      0.00000000       0.00000000      -0.00040012 </v>
    <i name="Tr[quadrupol]">  -1866.78955053 </i>
    <i name="Echarged">      0.00000000 </i>
    <i name="Edipol_quadrupol">      0.00000000 </i>
    <i name="Eion">      0.00000000 </i>
   </dipole>
   <energy>
    <i name="e_fr_energy">    -78.35328853 </i>
    <i name="e_wo_entrp">    -78.35328853 </i>
    <i name="e_0_energy">    -78.35328853 </i>
   </energy>
  </scstep>
  <scstep>
   <time name="diag">    0.49    0.51</time>
   <time name="diis">    3.12    3.12</time>
   <time name="orth">    0.07    0.07</time>
   <time name="total">    3.68    3.70</time>
   <dipole>
    <v name="dipole">      0.00000000       0.00000000      -0.00040012 </v>
    <i name="Tr[quadrupol]">  -1866.78955053 </i>
    <i name="Echarged">      0.00000000 </i>
    <i name="Edipol_quadrupol">      0.00000000 </i>
    <i name="Eion">      0.00000000 </i>
   </dipole>
   <energy>
    <i name="e_fr_energy">    -78.35563307 </i>
    <i name="e_wo_entrp">    -78.35563307 </i>
    <i name="e_0_energy">    -78.35563307 </i>
   </energy>
  </scstep>
  <scstep>
   <time name="diag">    0.49    0.51</time>
   <time name="diis">    3.28    3.28</time>
   <time name="orth">    0.07    0.07</time>
   <time name="total">    3.98    4.00</time>
   <dipole>
    <v name="dipole">      0.00000000       0.00000000      -0.00040012 </v>
    <i name="Tr[quadrupol]">  -1866.78955053 </i>
    <i name="Echarged">      0.00000000 </i>
    <i name="Edipol_quadrupol">      0.00000000 </i>
    <i name="Eion">      0.00000000 </i>
   </dipole>
   <energy>
    <i name="e_fr_energy">    -78.35872391 </i>
    <i name="e_wo_entrp">    -78.35872391 </i>
    <i name="e_0_energy">    -78.35872391 </i>
   </energy>
  </scstep>
  <scstep>
   <time name="diag">    0.48    0.48</time>
   <time name="diis">    2.61    2.61</time>
   <time name="orth">    0.07    0.07</time>
   <time name="total">    8.39    8.41</time>
   <dipole>
    <v name="dipole">      0.00000000       0.00000000       0.25933694 </v>
    <i name="Tr[quadrupol]">  -1878.06022695 </i>
    <i name="Echarged">      0.00000000 </i>
    <i name="Edipol_quadrupol">      0.00000000 </i>
    <i name="Eion">      0.00000000 </i>
   </dipole>
   <energy>
    <i name="e_fr_energy">    -68.47179029 </i>
    <i name="e_wo_entrp">    -68.47179029 </i>
    <i name="e_0_energy">    -68.47179029 </i>
   </energy>
  </scstep>
  <scstep>
   <time name="diag">    0.48    0.48</time>
   <time name="diis">    2.85    2.85</time>
   <time name="orth">    0.07    0.07</time>
   <time name="total">    8.57    8.60</time>
   <dipole>
    <v name="dipole">      0.00000000       0.00000000      -1.19020136 </v>
    <i name="Tr[quadrupol]">  -1869.38841203 </i>
    <i name="Echarged">      0.00000000 </i>
    <i name="Edipol_quadrupol">      0.00000000 </i>
    <i name="Eion">      0.00000000 </i>
   </dipole>
   <energy>
    <i name="e_fr_energy">    -76.17379774 </i>
    <i name="e_wo_entrp">    -76.17379774 </i>
    <i name="e_0_energy">    -76.17379774 </i>
   </energy>
  </scstep>
  <scstep>
   <time name="diag">    0.48    0.48</time>
   <time name="diis">    2.66    2.66</time>
   <time name="orth">    0.07    0.07</time>
   <time name="total">    8.39    8.42</time>
   <dipole>
    <v name="dipole">      0.00000000       0.00000000       0.19361647 </v>
    <i name="Tr[quadrupol]">  -1878.14336475 </i>
    <i name="Echarged">      0.00000000 </i>
    <i name="Edipol_quadrupol">      0.00000000 </i>
    <i name="Eion">      0.00000000 </i>
   </dipole>
   <energy>
    <i name="e_fr_energy">    -68.66043684 </i>
    <i name="e_wo_entrp">    -68.66043684 </i>
    <i name="e_0_energy">    -68.66043684 </i>
   </energy>
  </scstep>
  <scstep>
   <time name="diag">    0.84    0.84</time>
   <time name="diis">    3.14    3.14</time>
   <time name="orth">    0.08    0.08</time>
   <time name="total">    9.65    9.69</time>
   <dipole>
    <v name="dipole">      0.00000000       0.00000000       0.00823654 </v>
    <i name="Tr[quadrupol]">  -1881.62672836 </i>
    <i name="Echarged">      0.00000000 </i>
    <i name="Edipol_quadrupol">      0.00000000 </i>
    <i name="Eion">      0.00000000 </i>
   </dipole>
   <energy>
    <i name="e_fr_energy">    -68.00820596 </i>
    <i name="e_wo_entrp">    -68.00820596 </i>
    <i name="e_0_energy">    -68.00820596 </i>
   </energy>
  </scstep>
  <scstep>
   <time name="diag">    0.52    0.52</time>
   <time name="diis">    2.44    2.44</time>
   <time name="orth">    0.07    0.07</time>
   <time name="total">    9.52    9.55</time>
   <dipole>
    <v name="dipole">      0.00000000       0.00000000      -0.31335225 </v>
    <i name="Tr[quadrupol]">  -1880.38562298 </i>
    <i name="Echarged">      0.00000000 </i>
    <i name="Edipol_quadrupol">      0.00000000 </i>
    <i name="Eion">      0.00000000 </i>
   </dipole>
   <energy>
    <i name="e_fr_energy">    -67.88488374 </i>
    <i name="e_wo_entrp">    -67.88488374 </i>
    <i name="e_0_energy">    -67.88488374 </i>
   </energy>
  </scstep>
  <scstep>
   <time name="diag">    0.48    0.48</time>
   <time name="diis">    2.93    2.93</time>
   <time name="orth">    0.07    0.07</time>
   <time name="total">    8.95    8.97</time>
   <dipole>
    <v name="dipole">      0.00000000       0.00000000      -0.35228631 </v>
    <i name="Tr[quadrupol]">  -1881.04012564 </i>
    <i name="Echarged">      0.00000000 </i>
    <i name="Edipol_quadrupol">      0.00000000 </i>
    <i name="Eion">      0.00000000 </i>
   </dipole>
   <energy>
    <i name="e_fr_energy">    -67.86104765 </i>
    <i name="e_wo_entrp">    -67.86104765 </i>
    <i name="e_0_energy">    -67.86104765 </i>
   </energy>
  </scstep>
  <scstep>
   <time name="diag">    0.47    0.47</time>
   <time name="diis">    2.52    2.52</time>
   <time name="orth">    0.07    0.07</time>
   <time name="total">    8.37    8.39</time>
   <dipole>
    <v name="dipole">      0.00000000       0.00000000      -0.36076271 </v>
    <i name="Tr[quadrupol]">  -1882.00474299 </i>
    <i name="Echarged">      0.00000000 </i>
    <i name="Edipol_quadrupol">      0.00000000 </i>
    <i name="Eion">      0.00000000 </i>
   </dipole>
   <energy>
    <i name="e_fr_energy">    -67.86048123 </i>
    <i name="e_wo_entrp">    -67.86048123 </i>
    <i name="e_0_energy">    -67.86048123 </i>
   </energy>
  </scstep>
  <scstep>
   <time name="diag">    0.47    0.47</time>
   <time name="diis">    2.68    2.68</time>
   <time name="orth">    0.07    0.07</time>
   <time name="total">    8.43    8.46</time>
   <dipole>
    <v name="dipole">      0.00000000       0.00000000      -0.38642028 </v>
    <i name="Tr[quadrupol]">  -1882.50356225 </i>
    <i name="Echarged">      0.00000000 </i>
    <i name="Edipol_quadrupol">      0.00000000 </i>
    <i name="Eion">      0.00000000 </i>
   </dipole>
   <energy>
    <i name="e_fr_energy">    -67.86057918 </i>
    <i name="e_wo_entrp">    -67.86057918 </i>
    <i name="e_0_energy">    -67.86057918 </i>
   </energy>
  </scstep>
  <scstep>
   <time name="diag">    0.48    0.48</time>
   <time name="diis">    2.89    2.89</time>
   <time name="orth">    0.07    0.07</time>
   <time name="total">    8.64    8.67</time>
   <dipole>
    <v name="dipole">      0.00000000       0.00000000      -0.38609577 </v>
    <i name="Tr[quadrupol]">  -1882.80887735 </i>
    <i name="Echarged">      0.00000000 </i>
    <i name="Edipol_quadrupol">      0.00000000 </i>
    <i name="Eion">      0.00000000 </i>
   </dipole>
   <energy>
    <i name="e_fr_energy">    -67.85908069 </i>
    <i name="e_wo_entrp">    -67.85908069 </i>
    <i name="e_0_energy">    -67.85908069 </i>
   </energy>
  </scstep>
  <scstep>
   <time name="diag">    0.48    0.48</time>
   <time name="diis">    2.53    2.53</time>
   <time name="orth">    0.07    0.07</time>
   <time name="total">    8.27    8.29</time>
   <dipole>
    <v name="dipole">      0.00000000       0.00000000      -0.38170723 </v>
    <i name="Tr[quadrupol]">  -1883.16104256 </i>
    <i name="Echarged">      0.00000000 </i>
    <i name="Edipol_quadrupol">      0.00000000 </i>
    <i name="Eion">      0.00000000 </i>
   </dipole>
   <energy>
    <i name="e_fr_energy">    -67.85428501 </i>
    <i name="e_wo_entrp">    -67.85428501 </i>
    <i name="e_0_energy">    -67.85428501 </i>
   </energy>
  </scstep>
  <scstep>
   <time name="diag">    0.47    0.47</time>
   <time name="diis">    2.45    2.45</time>
   <time name="orth">    0.07    0.07</time>
   <time name="total">    8.20    8.23</time>
   <dipole>
    <v name="dipole">      0.00000000       0.00000000      -0.37769819 </v>
    <i name="Tr[quadrupol]">  -1883.33051311 </i>
    <i name="Echarged">      0.00000000 </i>
    <i name="Edipol_quadrupol">      0.00000000 </i>
    <i name="Eion">      0.00000000 </i>
   </dipole>
   <energy>
    <i name="e_fr_energy">    -67.85164449 </i>
    <i name="e_wo_entrp">    -67.85164449 </i>
    <i name="e_0_energy">    -67.85164449 </i>
   </energy>
  </scstep>
  <scstep>
   <time name="diag">    0.48    0.48</time>
   <time name="diis">    2.29    2.29</time>
   <time name="orth">    0.07    0.07</time>
   <time name="total">    8.03    8.06</time>
   <dipole>
    <v name="dipole">      0.00000000       0.00000000      -0.37268469 </v>
    <i name="Tr[quadrupol]">  -1883.48575342 </i>
    <i name="Echarged">      0.00000000 </i>
    <i name="Edipol_quadrupol">      0.00000000 </i>
    <i name="Eion">      0.00000000 </i>
   </dipole>
   <energy>
    <i name="e_fr_energy">    -67.85057879 </i>
    <i name="e_wo_entrp">    -67.85057879 </i>
    <i name="e_0_energy">    -67.85057879 </i>
   </energy>
  </scstep>
  <scstep>
   <time name="diag">    0.47    0.47</time>
   <time name="diis">    2.04    2.04</time>
   <time name="orth">    0.07    0.07</time>
   <time name="total">    7.79    7.81</time>
   <dipole>
    <v name="dipole">      0.00000000       0.00000000      -0.36493626 </v>
    <i name="Tr[quadrupol]">  -1883.62723475 </i>
    <i name="Echarged">      0.00000000 </i>
    <i name="Edipol_quadrupol">      0.00000000 </i>
    <i name="Eion">      0.00000000 </i>
   </dipole>
   <energy>
    <i name="e_fr_energy">    -67.85128180 </i>
    <i name="e_wo_entrp">    -67.85128180 </i>
    <i name="e_0_energy">    -67.85128180 </i>
   </energy>
  </scstep>
  <scstep>
   <time name="diag">    0.48    0.48</time>
   <time name="diis">    1.94    1.94</time>
   <time name="orth">    0.07    0.07</time>
   <time name="total">    7.68    7.71</time>
   <dipole>
    <v name="dipole">      0.00000000       0.00000000      -0.35977361 </v>
    <i name="Tr[quadrupol]">  -1883.72172548 </i>
    <i name="Echarged">      0.00000000 </i>
    <i name="Edipol_quadrupol">      0.00000000 </i>
    <i name="Eion">      0.00000000 </i>
   </dipole>
   <energy>
    <i name="e_fr_energy">    -67.85171659 </i>
    <i name="e_wo_entrp">    -67.85171659 </i>
    <i name="e_0_energy">    -67.85171659 </i>
   </energy>
  </scstep>
  <scstep>
   <time name="diag">    0.48    0.48</time>
   <time name="diis">    1.94    1.94</time>
   <time name="orth">    0.07    0.07</time>
   <time name="total">    7.69    7.72</time>
   <dipole>
    <v name="dipole">      0.00000000       0.00000000      -0.35445130 </v>
    <i name="Tr[quadrupol]">  -1883.80162249 </i>
    <i name="Echarged">      0.00000000 </i>
    <i name="Edipol_quadrupol">      0.00000000 </i>
    <i name="Eion">      0.00000000 </i>
   </dipole>
   <energy>
    <i name="e_fr_energy">    -67.85160397 </i>
    <i name="e_wo_entrp">    -67.85160397 </i>
    <i name="e_0_energy">    -67.85160397 </i>
   </energy>
  </scstep>
  <scstep>
   <time name="diag">    0.48    0.48</time>
   <time name="diis">    1.85    1.85</time>
   <time name="orth">    0.07    0.07</time>
   <time name="total">    7.96    7.98</time>
   <dipole>
    <v name="dipole">      0.00000000       0.00000000      -0.35186189 </v>
    <i name="Tr[quadrupol]">  -1883.85152024 </i>
    <i name="Echarged">      0.00000000 </i>
    <i name="Edipol_quadrupol">      0.00000000 </i>
    <i name="Eion">      0.00000000 </i>
   </dipole>
   <energy>
    <i name="e_fr_energy">    -67.85152049 </i>
    <i name="e_wo_entrp">    -67.85152049 </i>
    <i name="e_0_energy">    -67.85152049 </i>
   </energy>
  </scstep>
  <scstep>
   <time name="diag">    0.48    0.48</time>
   <time name="diis">    1.77    1.77</time>
   <time name="orth">    0.07    0.07</time>
   <time name="total">    7.53    7.55</time>
   <dipole>
    <v name="dipole">      0.00000000       0.00000000      -0.35049675 </v>
    <i name="Tr[quadrupol]">  -1883.85008656 </i>
    <i name="Echarged">      0.00000000 </i>
    <i name="Edipol_quadrupol">      0.00000000 </i>
    <i name="Eion">      0.00000000 </i>
   </dipole>
   <energy>
    <i name="e_fr_energy">    -67.85153134 </i>
    <i name="e_wo_entrp">    -67.85153134 </i>
    <i name="e_0_energy">    -67.85153134 </i>
   </energy>
  </scstep>
  <scstep>
   <time name="diag">    0.48    0.48</time>
   <time name="diis">    1.63    1.63</time>
   <time name="orth">    0.07    0.07</time>
   <time name="total">    7.43    7.45</time>
   <dipole>
    <v name="dipole">      0.00000000       0.00000000      -0.35015125 </v>
    <i name="Tr[quadrupol]">  -1883.84872162 </i>
    <i name="Echarged">      0.00000000 </i>
    <i name="Edipol_quadrupol">      0.00000000 </i>
    <i name="Eion">      0.00000000 </i>
   </dipole>
   <energy>
    <i name="e_fr_energy">    -67.85155176 </i>
    <i name="e_wo_entrp">    -67.85155176 </i>
    <i name="e_0_energy">    -67.85155176 </i>
   </energy>
  </scstep>
  <scstep>
   <time name="diag">    0.47    0.47</time>
   <time name="diis">    1.65    1.65</time>
   <time name="orth">    0.07    0.07</time>
   <time name="total">    7.42    7.45</time>
   <dipole>
    <v name="dipole">      0.00000000       0.00000000      -0.35012151 </v>
    <i name="Tr[quadrupol]">  -1883.80109140 </i>
    <i name="Echarged">      0.00000000 </i>
    <i name="Edipol_quadrupol">      0.00000000 </i>
    <i name="Eion">      0.00000000 </i>
   </dipole>
   <energy>
    <i name="e_fr_energy">    -67.85159656 </i>
    <i name="e_wo_entrp">    -67.85159656 </i>
    <i name="e_0_energy">    -67.85159656 </i>
   </energy>
  </scstep>
  <scstep>
   <time name="diag">    0.47    0.48</time>
   <time name="diis">    1.66    1.66</time>
   <time name="orth">    0.07    0.07</time>
   <time name="total">    7.53    7.56</time>
   <dipole>
    <v name="dipole">      0.00000000       0.00000000      -0.35021484 </v>
    <i name="Tr[quadrupol]">  -1884.11966672 </i>
    <i name="Echarged">      0.00000000 </i>
    <i name="Edipol_quadrupol">      0.00000000 </i>
    <i name="Eion">      0.00000000 </i>
   </dipole>
   <energy>
    <i name="e_fr_energy">    -67.85161772 </i>
    <i name="e_wo_entrp">    -67.85161772 </i>
    <i name="e_0_energy">    -67.85161772 </i>
   </energy>
  </scstep>
  <scstep>
   <time name="diag">    0.48    0.48</time>
   <time name="diis">    1.63    1.63</time>
   <time name="orth">    0.07    0.07</time>
   <time name="total">    7.38    7.41</time>
   <dipole>
    <v name="dipole">      0.00000000       0.00000000      -0.35046599 </v>
    <i name="Tr[quadrupol]">  -1884.25592687 </i>
    <i name="Echarged">      0.00000000 </i>
    <i name="Edipol_quadrupol">      0.00000000 </i>
    <i name="Eion">      0.00000000 </i>
   </dipole>
   <energy>
    <i name="e_fr_energy">    -67.85161506 </i>
    <i name="e_wo_entrp">    -67.85161506 </i>
    <i name="e_0_energy">    -67.85161506 </i>
   </energy>
  </scstep>
  <scstep>
   <time name="diag">    0.48    0.48</time>
   <time name="diis">    1.55    1.55</time>
   <time name="orth">    0.07    0.07</time>
   <time name="total">    7.31    7.34</time>
   <dipole>
    <v name="dipole">      0.00000000       0.00000000      -0.35085506 </v>
    <i name="Tr[quadrupol]">  -1884.21105142 </i>
    <i name="Echarged">      0.00000000 </i>
    <i name="Edipol_quadrupol">      0.00000000 </i>
    <i name="Eion">      0.00000000 </i>
   </dipole>
   <energy>
    <i name="e_fr_energy">    -67.85162769 </i>
    <i name="e_wo_entrp">    -67.85162769 </i>
    <i name="e_0_energy">    -67.85162769 </i>
   </energy>
  </scstep>
  <scstep>
   <time name="diag">    0.48    0.48</time>
   <time name="diis">    1.94    1.94</time>
   <time name="orth">    0.07    0.07</time>
   <time name="total">    7.72    7.75</time>
   <dipole>
    <v name="dipole">      0.00000000       0.00000000      -0.35120062 </v>
    <i name="Tr[quadrupol]">  -1884.21140131 </i>
    <i name="Echarged">      0.00000000 </i>
    <i name="Edipol_quadrupol">      0.00000000 </i>
    <i name="Eion">      0.00000000 </i>
   </dipole>
   <energy>
    <i name="e_fr_energy">    -67.85159590 </i>
    <i name="e_wo_entrp">    -67.85159590 </i>
    <i name="e_0_energy">    -67.85159590 </i>
   </energy>
  </scstep>
  <scstep>
   <time name="diag">    0.48    0.48</time>
   <time name="diis">    2.06    2.06</time>
   <time name="orth">    0.07    0.07</time>
   <time name="total">    7.82    7.84</time>
   <dipole>
    <v name="dipole">      0.00000000       0.00000000      -0.35137684 </v>
    <i name="Tr[quadrupol]">  -1884.25776476 </i>
    <i name="Echarged">      0.00000000 </i>
    <i name="Edipol_quadrupol">      0.00000000 </i>
    <i name="Eion">      0.00000000 </i>
   </dipole>
   <energy>
    <i name="e_fr_energy">    -67.85158243 </i>
    <i name="e_wo_entrp">    -67.85158243 </i>
    <i name="e_0_energy">    -67.85158243 </i>
   </energy>
  </scstep>
  <scstep>
   <time name="diag">    0.48    0.48</time>
   <time name="diis">    2.15    2.15</time>
   <time name="orth">    0.07    0.07</time>
   <time name="total">    7.90    7.94</time>
   <dipole>
    <v name="dipole">      0.00000000       0.00000000      -0.35146002 </v>
    <i name="Tr[quadrupol]">  -1884.34988160 </i>
    <i name="Echarged">      0.00000000 </i>
    <i name="Edipol_quadrupol">      0.00000000 </i>
    <i name="Eion">      0.00000000 </i>
   </dipole>
   <energy>
    <i name="e_fr_energy">    -67.85158867 </i>
    <i name="e_wo_entrp">    -67.85158867 </i>
    <i name="e_0_energy">    -67.85158867 </i>
   </energy>
  </scstep>
  <scstep>
   <time name="diag">    0.48    0.48</time>
   <time name="diis">    2.17    2.17</time>
   <time name="orth">    0.07    0.07</time>
   <time name="total">    7.93    7.95</time>
   <dipole>
    <v name="dipole">      0.00000000       0.00000000      -0.35149483 </v>
    <i name="Tr[quadrupol]">  -1884.44174208 </i>
    <i name="Echarged">      0.00000000 </i>
    <i name="Edipol_quadrupol">      0.00000000 </i>
    <i name="Eion">      0.00000000 </i>
   </dipole>
   <energy>
    <i name="e_fr_energy">    -67.85157796 </i>
    <i name="e_wo_entrp">    -67.85157796 </i>
    <i name="e_0_energy">    -67.85157796 </i>
   </energy>
  </scstep>
  <scstep>
   <time name="diag">    0.48    0.48</time>
   <time name="diis">    2.16    2.16</time>
   <time name="orth">    0.09    0.09</time>
   <time name="total">    7.94    7.96</time>
   <dipole>
    <v name="dipole">      0.00000000       0.00000000      -0.35154942 </v>
    <i name="Tr[quadrupol]">  -1884.57923621 </i>
    <i name="Echarged">      0.00000000 </i>
    <i name="Edipol_quadrupol">      0.00000000 </i>
    <i name="Eion">      0.00000000 </i>
   </dipole>
   <energy>
    <i name="e_fr_energy">    -67.85157660 </i>
    <i name="e_wo_entrp">    -67.85157660 </i>
    <i name="e_0_energy">    -67.85157660 </i>
   </energy>
  </scstep>
  <scstep>
   <time name="diag">    0.48    0.48</time>
   <time name="diis">    2.15    2.15</time>
   <time name="orth">    0.07    0.07</time>
   <time name="total">    8.00    8.03</time>
   <dipole>
    <v name="dipole">      0.00000000       0.00000000      -0.35155979 </v>
    <i name="Tr[quadrupol]">  -1884.67101238 </i>
    <i name="Echarged">      0.00000000 </i>
    <i name="Edipol_quadrupol">      0.00000000 </i>
    <i name="Eion">      0.00000000 </i>
   </dipole>
   <energy>
    <i name="alphaZ">     66.66860103 </i>
    <i name="ewald">  12561.86744252 </i>
    <i name="hartreedc"> -16013.17919922 </i>
    <i name="XCdc">  -2035.33657981 </i>
    <i name="pawpsdc">   5987.53427975 </i>
    <i name="pawaedc">  -3573.81398725 </i>
    <i name="eentropy">      0.00000000 </i>
    <i name="bandstr">   -889.58028286 </i>
    <i name="atom">   3827.98814510 </i>
    <i name="e_fr_energy">    -67.85158072 </i>
    <i name="e_wo_entrp">    -67.85158072 </i>
    <i name="e_0_energy">    -67.85158072 </i>
   </energy>
  </scstep>
  <structure>
   <crystal>
    <varray name="basis" >
     <v>       9.55575275       0.00000000       0.00000000 </v>
     <v>      -4.77787638       8.27552464       0.00000000 </v>
     <v>       0.00000000       0.00000000      32.62509537 </v>
    </varray>
    <i name="volume">   2579.95558872 </i>
    <varray name="rec_basis" >
     <v>       0.10464900       0.06041913       0.00000000 </v>
     <v>       0.00000000       0.12083826       0.00000000 </v>
     <v>       0.00000000       0.00000000       0.03065125 </v>
    </varray>
   </crystal>
   <varray name="positions" >
    <v>       0.00000000       0.00000000       0.00000000 </v>
    <v>       0.99899185       0.00119768       0.15789616 </v>
    <v>       0.99306206       0.99921902       0.32926484 </v>
    <v>       0.00000001       0.33333336       0.00000000 </v>
    <v>       0.99973003       0.33440155       0.15731866 </v>
    <v>       0.99755230       0.33716000       0.31071416 </v>
    <v>       0.00000002       0.66666672       0.00000000 </v>
    <v>       0.99879142       0.66674227       0.15715877 </v>
    <v>       0.99825271       0.67184946       0.31323403 </v>
    <v>       0.33333334       0.00000000       0.00000000 </v>
    <v>       0.33322267       0.00107267       0.15720447 </v>
    <v>       0.32868480       0.00374951       0.30932831 </v>
    <v>       0.33333335       0.33333336       0.00000000 </v>
    <v>       0.33209461       0.33347254       0.15718829 </v>
    <v>       0.32965415       0.33891853       0.31430230 </v>
    <v>       0.33333336       0.66666672       0.00000000 </v>
    <v>       0.33225816       0.66784871       0.15789653 </v>
    <v>       0.32849135       0.67020213       0.33059163 </v>
    <v>       0.66666668       0.00000000       0.00000000 </v>
    <v>       0.66559919       0.00048475       0.15719747 </v>
    <v>       0.66461765       0.00468667       0.31305873 </v>
    <v>       0.66666668       0.33333336       0.00000000 </v>
    <v>       0.66564839       0.33431608       0.15800007 </v>
    <v>       0.66088630       0.33473180       0.32807676 </v>
    <v>       0.66666670       0.66666672       0.00000000 </v>
    <v>       0.66636733       0.66768800       0.15721776 </v>
    <v>       0.66051992       0.66937957       0.30962753 </v>
    <v>       0.11111113       0.22222222       0.07982145 </v>
    <v>       0.10933462       0.22008250       0.23608005 </v>
    <v>       0.11111114       0.55555561       0.07982145 </v>
    <v>       0.11317572       0.56033880       0.23580006 </v>
    <v>       0.11111116       0.88888894       0.07982145 </v>
    <v>       0.10703929       0.88971099       0.23431260 </v>
    <v>       0.44444450       0.22222222       0.07982145 </v>
    <v>       0.44652352       0.22801047       0.23577138 </v>
    <v>       0.44444450       0.55555561       0.07982145 </v>
    <v>       0.43982774       0.55624245       0.23447035 </v>
    <v>       0.44444451       0.88888894       0.07982145 </v>
    <v>       0.44276843       0.88677301       0.23574643 </v>
    <v>       0.77777779       0.22222222       0.07982145 </v>
    <v>       0.77441667       0.22418349       0.23487016 </v>
    <v>       0.77777781       0.55555561       0.07982145 </v>
    <v>       0.77607049       0.55385315       0.23576063 </v>
    <v>       0.77777784       0.88888894       0.07982145 </v>
    <v>       0.77960815       0.89357400       0.23552554 </v>
    <v>       0.96978134       0.98283688       0.39623890 </v>
    <v>       0.25295206       0.94732145       0.41339352 </v>
    <v>       0.89232087       0.23712003       0.41222010 </v>
    <v>       0.65341328       0.33906356       0.39393672 </v>
    <v>       0.61758675       0.61102970       0.41336512 </v>
    <v>       0.32081619       0.68775617       0.39668626 </v>
    <v>       0.95155706       0.06682072       0.40876027 </v>
    <v>       0.06088726       0.98303353       0.41058931 </v>
    <v>       0.35360191       0.05137418       0.41578236 </v>
    <v>       0.23346845       0.93562488       0.38307115 </v>
    <v>       0.99667938       0.33807721       0.41141670 </v>
    <v>       0.86451484       0.21303665       0.38241501 </v>
    <v>       0.65467437       0.43507543       0.40609440 </v>
    <v>       0.73331732       0.32016445       0.40828508 </v>
    <v>       0.71930557       0.71366926       0.40995952 </v>
    <v>       0.56863818       0.58999020       0.38548999 </v>
    <v>       0.30435310       0.77506720       0.40780805 </v>
    <v>       0.40619131       0.68534361       0.41278765 </v>
   </varray>
  </structure>
  <varray name="forces" >
   <v>       0.01188348      -0.02669678       0.00914774 </v>
   <v>      -0.01148857      -0.01191150       0.00107841 </v>
   <v>       0.01359272      -0.02096466      -0.01594123 </v>
   <v>      -0.02627196      -0.00989156      -0.01799111 </v>
   <v>      -0.00430575       0.00472486      -0.00543688 </v>
   <v>      -0.03028960      -0.00686254       0.01242153 </v>
   <v>      -0.01052029       0.03563591      -0.02787040 </v>
   <v>      -0.01462687       0.00495888       0.00266270 </v>
   <v>      -0.00506183       0.03414260       0.01691526 </v>
   <v>      -0.02779001      -0.01122470      -0.01950824 </v>
   <v>      -0.00454548      -0.00571542       0.00036528 </v>
   <v>      -0.03391468      -0.01020156       0.01032696 </v>
   <v>       0.01051713       0.03394577      -0.01718297 </v>
   <v>       0.00443618       0.01166538      -0.00299928 </v>
   <v>       0.00789459       0.04043366       0.00904480 </v>
   <v>       0.01653408      -0.01102486       0.00541678 </v>
   <v>      -0.00338638       0.00347584       0.00631891 </v>
   <v>       0.02001166      -0.01567006      -0.01618562 </v>
   <v>       0.00409681       0.02191147      -0.01872368 </v>
   <v>       0.00256393      -0.00233318       0.00223468 </v>
   <v>       0.00526391       0.03103723       0.00817537 </v>
   <v>       0.00302457      -0.00615805       0.00379614 </v>
   <v>      -0.01060306       0.01560476       0.00583834 </v>
   <v>       0.00928597      -0.00357599      -0.00779261 </v>
   <v>      -0.01985463      -0.00634256      -0.02985121 </v>
   <v>       0.00357287       0.00567137       0.00539596 </v>
   <v>      -0.02706477      -0.00799415       0.01427567 </v>
   <v>       0.00697218      -0.03522078       0.00826119 </v>
   <v>       0.00656293      -0.03371719       0.00013721 </v>
   <v>       0.02642771       0.01810994       0.01293067 </v>
   <v>       0.01845669       0.02186230      -0.00030962 </v>
   <v>      -0.04452066       0.00302812      -0.03324556 </v>
   <v>      -0.02295869      -0.00353908       0.01103016 </v>
   <v>       0.03216818       0.03488263       0.00739578 </v>
   <v>       0.03526459       0.03109472       0.00332275 </v>
   <v>      -0.03092207       0.00683805      -0.02816154 </v>
   <v>      -0.00577238       0.01009779       0.00977379 </v>
   <v>       0.00958721      -0.03836561       0.00904609 </v>
   <v>       0.00387596      -0.03241826      -0.00155411 </v>
   <v>      -0.03187727       0.01960598      -0.02725770 </v>
   <v>      -0.02415047       0.01645712       0.00751288 </v>
   <v>       0.01456520      -0.03404848       0.01342607 </v>
   <v>       0.00597609      -0.02642148      -0.00546259 </v>
   <v>       0.04364515       0.02164596       0.00930275 </v>
   <v>       0.03518255       0.00396164      -0.00155419 </v>
   <v>      -0.00368705       0.00591518       0.01105660 </v>
   <v>       0.00803140      -0.00502311       0.03048863 </v>
   <v>       0.01111291       0.00317904       0.03157382 </v>
   <v>      -0.00771353      -0.01165001       0.02080341 </v>
   <v>      -0.00653781      -0.00145098       0.04246047 </v>
   <v>       0.01026647       0.00254981       0.00966517 </v>
   <v>       0.00099049       0.00009197      -0.00099993 </v>
   <v>       0.00279301      -0.00540596      -0.00605183 </v>
   <v>      -0.00152496      -0.00684084      -0.00231023 </v>
   <v>      -0.00638930      -0.02997200      -0.02036191 </v>
   <v>       0.00343161       0.00246738       0.00176888 </v>
   <v>      -0.00936874      -0.00834933      -0.01986816 </v>
   <v>      -0.00506615       0.00189456       0.00580738 </v>
   <v>       0.00029655      -0.00114363       0.00205568 </v>
   <v>      -0.00043078      -0.00197301       0.00451749 </v>
   <v>      -0.00017013      -0.01205398      -0.02531440 </v>
   <v>       0.01341204      -0.00388794       0.00074691 </v>
   <v>       0.02911707       0.00115930      -0.01456331 </v>
  </varray>
  <varray name="stress" >
   <v>      -4.96335927      -1.45925800       0.26903973 </v>
   <v>      -1.45925790      -6.16448353      -0.25622573 </v>
   <v>       0.26903953      -0.25622608       0.67365181 </v>
  </varray>
  <energy>
   <i name="e_fr_energy">    -67.85158072 </i>
   <i name="e_wo_entrp">    -67.85158072 </i>
   <i name="e_0_energy">      0.00000000 </i>
  </energy>
  <time name="totalsc">  280.84  282.57</time>
  <eigenvalues>
   <array>
    <dimension dim="1">band</dimension>
    <dimension dim="2">kpoint</dimension>
    <dimension dim="3">spin</dimension>
    <field>eigene</field>
    <field>occ</field>
    <set>
     <set comment="spin 1">
      <set comment="kpoint 1">
       <r>  -23.8776    1.0000 </r>
       <r>  -23.7909    1.0000 </r>
       <r>  -23.6553    1.0000 </r>
       <r>  -23.4940    1.0000 </r>
       <r>  -23.4181    1.0000 </r>
       <r>  -23.2269    1.0000 </r>
       <r>  -11.9085    1.0000 </r>
       <r>  -11.8528    1.0000 </r>
       <r>  -11.7501    1.0000 </r>
       <r>  -11.2382    1.0000 </r>
       <r>  -11.0988    1.0000 </r>
       <r>  -10.9847    1.0000 </r>
       <r>   -8.7603    1.0000 </r>
       <r>   -8.6531    1.0000 </r>
       <r>   -8.5649    1.0000 </r>
       <r>   -8.0032    1.0000 </r>
       <r>   -7.9397    1.0000 </r>
       <r>   -7.6829    1.0000 </r>
       <r>   -7.4731    1.0000 </r>
       <r>   -6.8695    1.0000 </r>
       <r>   -6.5510    1.0000 </r>
       <r>   -6.4285    1.0000 </r>
       <r>   -6.3342    1.0000 </r>
       <r>   -5.9730    1.0000 </r>
       <r>   -5.9331    1.0000 </r>
       <r>   -5.9125    1.0000 </r>
       <r>   -5.7201    1.0000 </r>
       <r>   -5.3218    1.0000 </r>
       <r>   -5.3201    1.0000 </r>
       <r>   -5.3163    1.0000 </r>
       <r>   -5.3126    1.0000 </r>
       <r>   -5.2788    1.0000 </r>
       <r>   -5.2769    1.0000 </r>
       <r>   -4.7812    1.0000 </r>
       <r>   -4.7581    1.0000 </r>
       <r>   -4.7522    1.0000 </r>
       <r>   -4.7495    1.0000 </r>
       <r>   -4.7423    1.0000 </r>
       <r>   -4.6250    1.0000 </r>
       <r>   -4.6219    1.0000 </r>
       <r>   -3.8836    1.0000 </r>
       <r>   -3.8786    1.0000 </r>
       <r>   -3.8664    1.0000 </r>
       <r>   -3.8579    1.0000 </r>
       <r>   -3.7291    1.0000 </r>
       <r>   -3.7269    1.0000 </r>
       <r>   -3.2557    1.0000 </r>
       <r>   -2.7454    1.0000 </r>
       <r>   -2.7406    1.0000 </r>
       <r>   -2.6963    1.0000 </r>
       <r>   -2.6857    1.0000 </r>
       <r>   -2.6415    1.0000 </r>
       <r>   -2.6253    1.0000 </r>
       <r>   -1.8319    1.0000 </r>
       <r>   -1.3296    1.0000 </r>
       <r>   -1.3129    1.0000 </r>
       <r>   -1.2422    1.0000 </r>
       <r>   -1.2214    1.0000 </r>
       <r>   -1.1951    1.0000 </r>
       <r>   -1.1487    1.0000 </r>
       <r>   -1.1446    1.0000 </r>
       <r>   -1.1381    1.0000 </r>
       <r>   -1.0971    1.0000 </r>
       <r>   -1.0913    1.0000 </r>
       <r>   -1.0721    1.0000 </r>
       <r>   -1.0513    1.0000 </r>
       <r>   -0.8084    1.0000 </r>
       <r>   -0.6990    1.0000 </r>
       <r>   -0.6038    0.0000 </r>
       <r>   -0.5808    0.0000 </r>
       <r>   -0.4665    0.0000 </r>
       <r>   -0.4475    0.0000 </r>
       <r>   -0.2163    0.0000 </r>
       <r>   -0.1419    0.0000 </r>
       <r>   -0.1149    0.0000 </r>
       <r>    0.0727    0.0000 </r>
       <r>    0.0891    0.0000 </r>
       <r>    0.1665    0.0000 </r>
       <r>    0.1893    0.0000 </r>
       <r>    0.2170    0.0000 </r>
       <r>    0.2498    0.0000 </r>
       <r>    0.4376    0.0000 </r>
       <r>    0.4665    0.0000 </r>
       <r>    0.7895    0.0000 </r>
       <r>    0.9517    0.0000 </r>
       <r>    0.9586    0.0000 </r>
       <r>    0.9640    0.0000 </r>
       <r>    0.9676    0.0000 </r>
       <r>    0.9728    0.0000 </r>
       <r>    0.9816    0.0000 </r>
       <r>    1.0380    0.0000 </r>
       <r>    1.1431    0.0000 </r>
       <r>    1.2359    0.0000 </r>
       <r>    1.2804    0.0000 </r>
       <r>    1.5293    0.0000 </r>
       <r>    1.5340    0.0000 </r>
       <r>    1.5418    0.0000 </r>
       <r>    1.5494    0.0000 </r>
       <r>    1.5519    0.0000 </r>
       <r>    1.5618    0.0000 </r>
       <r>    1.6640    0.0000 </r>
       <r>    1.7348    0.0000 </r>
      </set>
      <set comment="kpoint 2">
       <r>  -23.8731    1.0000 </r>
       <r>  -23.7978    1.0000 </r>
       <r>  -23.6538    1.0000 </r>
       <r>  -23.4958    1.0000 </r>
       <r>  -23.4135    1.0000 </r>
       <r>  -23.2288    1.0000 </r>
       <r>  -11.9057    1.0000 </r>
       <r>  -11.8544    1.0000 </r>
       <r>  -11.7514    1.0000 </r>
       <r>  -11.2260    1.0000 </r>
       <r>  -11.1207    1.0000 </r>
       <r>  -10.9748    1.0000 </r>
       <r>   -8.7556    1.0000 </r>
       <r>   -8.6493    1.0000 </r>
       <r>   -8.5768    1.0000 </r>
       <r>   -7.9840    1.0000 </r>
       <r>   -7.9446    1.0000 </r>
       <r>   -7.6929    1.0000 </r>
       <r>   -7.2308    1.0000 </r>
       <r>   -6.6439    1.0000 </r>
       <r>   -6.5643    1.0000 </r>
       <r>   -6.5095    1.0000 </r>
       <r>   -6.4037    1.0000 </r>
       <r>   -6.3300    1.0000 </r>
       <r>   -5.9734    1.0000 </r>
       <r>   -5.9274    1.0000 </r>
       <r>   -5.8832    1.0000 </r>
       <r>   -5.7958    1.0000 </r>
       <r>   -5.7666    1.0000 </r>
       <r>   -5.7318    1.0000 </r>
       <r>   -5.6865    1.0000 </r>
       <r>   -5.2254    1.0000 </r>
       <r>   -5.1366    1.0000 </r>
       <r>   -5.0023    1.0000 </r>
       <r>   -4.5442    1.0000 </r>
       <r>   -4.3703    1.0000 </r>
       <r>   -4.3435    1.0000 </r>
       <r>   -4.3399    1.0000 </r>
       <r>   -4.2491    1.0000 </r>
       <r>   -3.8496    1.0000 </r>
       <r>   -3.8104    1.0000 </r>
       <r>   -3.7121    1.0000 </r>
       <r>   -3.6493    1.0000 </r>
       <r>   -3.1854    1.0000 </r>
       <r>   -3.1278    1.0000 </r>
       <r>   -3.0504    1.0000 </r>
       <r>   -3.0204    1.0000 </r>
       <r>   -2.9678    1.0000 </r>
       <r>   -2.9465    1.0000 </r>
       <r>   -2.9364    1.0000 </r>
       <r>   -2.8520    1.0000 </r>
       <r>   -2.4238    1.0000 </r>
       <r>   -2.3386    1.0000 </r>
       <r>   -2.3192    1.0000 </r>
       <r>   -2.2286    1.0000 </r>
       <r>   -1.8252    1.0000 </r>
       <r>   -1.7647    1.0000 </r>
       <r>   -1.7290    1.0000 </r>
       <r>   -1.6194    1.0000 </r>
       <r>   -1.6013    1.0000 </r>
       <r>   -1.5687    1.0000 </r>
       <r>   -1.5472    1.0000 </r>
       <r>   -1.5109    1.0000 </r>
       <r>   -1.3310    1.0000 </r>
       <r>   -0.9231    1.0000 </r>
       <r>   -0.9203    1.0000 </r>
       <r>   -0.9128    1.0000 </r>
       <r>   -0.6949    1.0000 </r>
       <r>   -0.6785    0.5012 </r>
       <r>   -0.6655    0.0992 </r>
       <r>   -0.6312   -0.0323 </r>
       <r>   -0.5202   -0.0224 </r>
       <r>   -0.3323    0.0000 </r>
       <r>   -0.1234    0.0000 </r>
       <r>   -0.0648    0.0000 </r>
       <r>   -0.0255    0.0000 </r>
       <r>    0.0037    0.0000 </r>
       <r>    0.1272    0.0000 </r>
       <r>    0.1490    0.0000 </r>
       <r>    0.2252    0.0000 </r>
       <r>    0.4490    0.0000 </r>
       <r>    0.4600    0.0000 </r>
       <r>    0.5335    0.0000 </r>
       <r>    0.5564    0.0000 </r>
       <r>    0.5695    0.0000 </r>
       <r>    0.8078    0.0000 </r>
       <r>    0.8285    0.0000 </r>
       <r>    0.8511    0.0000 </r>
       <r>    0.9977    0.0000 </r>
       <r>    1.0283    0.0000 </r>
       <r>    1.0367    0.0000 </r>
       <r>    1.2304    0.0000 </r>
       <r>    1.2710    0.0000 </r>
       <r>    1.2859    0.0000 </r>
       <r>    1.3619    0.0000 </r>
       <r>    1.4052    0.0000 </r>
       <r>    1.4170    0.0000 </r>
       <r>    1.4815    0.0000 </r>
       <r>    1.5477    0.0000 </r>
       <r>    1.6309    0.0000 </r>
       <r>    1.7645    0.0000 </r>
       <r>    2.0652    0.0000 </r>
      </set>
      <set comment="kpoint 3">
       <r>  -23.8740    1.0000 </r>
       <r>  -23.7947    1.0000 </r>
       <r>  -23.6565    1.0000 </r>
       <r>  -23.5029    1.0000 </r>
       <r>  -23.4029    1.0000 </r>
       <r>  -23.2318    1.0000 </r>
       <r>  -11.9078    1.0000 </r>
       <r>  -11.8524    1.0000 </r>
       <r>  -11.7503    1.0000 </r>
       <r>  -11.2276    1.0000 </r>
       <r>  -11.1223    1.0000 </r>
       <r>  -10.9725    1.0000 </r>
       <r>   -8.7546    1.0000 </r>
       <r>   -8.6511    1.0000 </r>
       <r>   -8.5781    1.0000 </r>
       <r>   -7.9891    1.0000 </r>
       <r>   -7.9329    1.0000 </r>
       <r>   -7.6982    1.0000 </r>
       <r>   -7.2306    1.0000 </r>
       <r>   -6.6431    1.0000 </r>
       <r>   -6.5644    1.0000 </r>
       <r>   -6.5114    1.0000 </r>
       <r>   -6.4011    1.0000 </r>
       <r>   -6.3296    1.0000 </r>
       <r>   -5.9754    1.0000 </r>
       <r>   -5.9218    1.0000 </r>
       <r>   -5.8871    1.0000 </r>
       <r>   -5.7971    1.0000 </r>
       <r>   -5.7659    1.0000 </r>
[...]
       <r>   -21.9754     0.0000    12.0000 </r>
       <r>   -21.8754     0.0000    12.0000 </r>
       <r>   -21.7753     0.0000    12.0000 </r>
       <r>   -21.6752     0.0000    12.0000 </r>
       <r>   -21.5752     0.0000    12.0000 </r>
       <r>   -21.4751     0.0000    12.0000 </r>
       <r>   -21.3751     0.0000    12.0000 </r>
       <r>   -21.2750     0.0000    12.0000 </r>
       <r>   -21.1750     0.0000    12.0000 </r>
       <r>   -21.0749     0.0000    12.0000 </r>
       <r>   -20.9748     0.0000    12.0000 </r>
       <r>   -20.8748     0.0000    12.0000 </r>
       <r>   -20.7747     0.0000    12.0000 </r>
       <r>   -20.6747     0.0000    12.0000 </r>
       <r>   -20.5746     0.0000    12.0000 </r>
       <r>   -20.4746     0.0000    12.0000 </r>
       <r>   -20.3745     0.0000    12.0000 </r>
       <r>   -20.2744     0.0000    12.0000 </r>
       <r>   -20.1744     0.0000    12.0000 </r>
       <r>   -20.0743     0.0000    12.0000 </r>
       <r>   -19.9743     0.0000    12.0000 </r>
       <r>   -19.8742     0.0000    12.0000 </r>
       <r>   -19.7742     0.0000    12.0000 </r>
       <r>   -19.6741     0.0000    12.0000 </r>
       <r>   -19.5740     0.0000    12.0000 </r>
       <r>   -19.4740     0.0000    12.0000 </r>
       <r>   -19.3739     0.0000    12.0000 </r>
       <r>   -19.2739     0.0000    12.0000 </r>
       <r>   -19.1738     0.0000    12.0000 </r>
       <r>   -19.0738     0.0000    12.0000 </r>
       <r>   -18.9737     0.0000    12.0000 </r>
       <r>   -18.8736     0.0000    12.0000 </r>
       <r>   -18.7736     0.0000    12.0000 </r>
       <r>   -18.6735     0.0000    12.0000 </r>
       <r>   -18.5735     0.0000    12.0000 </r>
       <r>   -18.4734     0.0000    12.0000 </r>
       <r>   -18.3734     0.0000    12.0000 </r>
       <r>   -18.2733     0.0000    12.0000 </r>
       <r>   -18.1733     0.0000    12.0000 </r>
       <r>   -18.0732     0.0000    12.0000 </r>
       <r>   -17.9731     0.0000    12.0000 </r>
       <r>   -17.8731     0.0000    12.0000 </r>
       <r>   -17.7730     0.0000    12.0000 </r>
       <r>   -17.6730     0.0000    12.0000 </r>
       <r>   -17.5729     0.0000    12.0000 </r>
       <r>   -17.4729     0.0000    12.0000 </r>
       <r>   -17.3728     0.0000    12.0000 </r>
       <r>   -17.2727     0.0000    12.0000 </r>
       <r>   -17.1727     0.0000    12.0000 </r>
       <r>   -17.0726     0.0000    12.0000 </r>
       <r>   -16.9726     0.0000    12.0000 </r>
       <r>   -16.8725     0.0000    12.0000 </r>
       <r>   -16.7725     0.0000    12.0000 </r>
       <r>   -16.6724     0.0000    12.0000 </r>
       <r>   -16.5723     0.0000    12.0000 </r>
       <r>   -16.4723     0.0000    12.0000 </r>
       <r>   -16.3722     0.0000    12.0000 </r>
       <r>   -16.2722     0.0000    12.0000 </r>
       <r>   -16.1721     0.0000    12.0000 </r>
       <r>   -16.0721     0.0000    12.0000 </r>
       <r>   -15.9720     0.0000    12.0000 </r>
       <r>   -15.8719     0.0000    12.0000 </r>
       <r>   -15.7719     0.0000    12.0000 </r>
       <r>   -15.6718     0.0000    12.0000 </r>
       <r>   -15.5718     0.0000    12.0000 </r>
       <r>   -15.4717     0.0000    12.0000 </r>
       <r>   -15.3717     0.0000    12.0000 </r>
       <r>   -15.2716     0.0000    12.0000 </r>
       <r>   -15.1715     0.0000    12.0000 </r>
       <r>   -15.0715     0.0000    12.0000 </r>
       <r>   -14.9714     0.0000    12.0000 </r>
       <r>   -14.8714     0.0000    12.0000 </r>
       <r>   -14.7713     0.0000    12.0000 </r>
       <r>   -14.6713     0.0000    12.0000 </r>
       <r>   -14.5712     0.0000    12.0000 </r>
       <r>   -14.4712     0.0000    12.0000 </r>
       <r>   -14.3711     0.0000    12.0000 </r>
       <r>   -14.2710     0.0000    12.0000 </r>
       <r>   -14.1710     0.0000    12.0000 </r>
       <r>   -14.0709     0.0000    12.0000 </r>
       <r>   -13.9709     0.0000    12.0000 </r>
       <r>   -13.8708     0.0000    12.0000 </r>
       <r>   -13.7708     0.0000    12.0000 </r>
       <r>   -13.6707     0.0000    12.0000 </r>
       <r>   -13.5706     0.0000    12.0000 </r>
       <r>   -13.4706     0.0000    12.0000 </r>
       <r>   -13.3705     0.0000    12.0000 </r>
       <r>   -13.2705     0.0000    12.0000 </r>
       <r>   -13.1704     0.0000    12.0000 </r>
       <r>   -13.0704     0.0000    12.0000 </r>
       <r>   -12.9703     0.0000    12.0000 </r>
       <r>   -12.8702     0.0000    12.0000 </r>
       <r>   -12.7702     0.0000    12.0000 </r>
       <r>   -12.6701     0.0000    12.0000 </r>
       <r>   -12.5701     0.0000    12.0000 </r>
       <r>   -12.4700     0.0000    12.0000 </r>
       <r>   -12.3700     0.0000    12.0000 </r>
       <r>   -12.2699     0.0000    12.0000 </r>
       <r>   -12.1698     0.0000    12.0000 </r>
       <r>   -12.0698     0.0000    12.0000 </r>
       <r>   -11.9697     0.0000    12.0000 </r>
       <r>   -11.8697     0.0000    14.0000 </r>
       <r>   -11.7696     0.0000    16.0000 </r>
       <r>   -11.6696     0.0000    18.0000 </r>
       <r>   -11.5695     0.0000    18.0000 </r>
       <r>   -11.4694     0.0000    18.0000 </r>
       <r>   -11.3694     0.0000    18.0000 </r>
       <r>   -11.2693     0.0000    18.0000 </r>
       <r>   -11.1693     0.0000    20.0000 </r>
       <r>   -11.0692     0.0000    22.0000 </r>
       <r>   -10.9692     0.0000    24.0000 </r>
       <r>   -10.8691     0.0000    24.0000 </r>
       <r>   -10.7691     0.0000    24.0000 </r>
       <r>   -10.6690     0.0000    24.0000 </r>
       <r>   -10.5689     0.0000    24.0000 </r>
       <r>   -10.4689     0.0000    24.0000 </r>
       <r>   -10.3688     0.0000    24.0000 </r>
       <r>   -10.2688     0.0000    24.0000 </r>
       <r>   -10.1687     0.0000    24.0000 </r>
       <r>   -10.0687     0.0000    24.0000 </r>
       <r>    -9.9686     0.0000    24.0000 </r>
       <r>    -9.8685     0.0000    24.0000 </r>
       <r>    -9.7685     0.0000    24.0000 </r>
       <r>    -9.6684     0.0000    24.0000 </r>
       <r>    -9.5684     0.0000    24.0000 </r>
       <r>    -9.4683     0.0000    24.0000 </r>
       <r>    -9.3683     0.0000    24.0000 </r>
       <r>    -9.2682     0.0000    24.0000 </r>
       <r>    -9.1681     0.0000    24.0000 </r>
       <r>    -9.0681     0.0000    24.0000 </r>
       <r>    -8.9680     0.0000    24.0000 </r>
       <r>    -8.8680     0.0000    24.0000 </r>
       <r>    -8.7679     0.0000    24.0000 </r>
       <r>    -8.6679     0.0000    26.0000 </r>
       <r>    -8.5678   106.4328    29.7280 </r>
       <r>    -8.4677     0.0000    30.0000 </r>
       <r>    -8.3677     0.0000    30.0000 </r>
       <r>    -8.2676     0.0000    30.0000 </r>
       <r>    -8.1676     0.0000    30.0000 </r>
       <r>    -8.0675     0.0000    30.0000 </r>
       <r>    -7.9675     0.0000    32.0000 </r>
       <r>    -7.8674     0.0000    34.0000 </r>
       <r>    -7.7673     0.0000    34.0000 </r>
       <r>    -7.6673     0.0000    36.0000 </r>
       <r>    -7.5672     0.0000    36.0000 </r>
       <r>    -7.4672     0.1336    36.0004 </r>
       <r>    -7.3671     2.4074    36.1275 </r>
       <r>    -7.2671     4.6812    36.4821 </r>
       <r>    -7.1670     4.8371    36.9992 </r>
       <r>    -7.0669     3.6675    37.4247 </r>
       <r>    -6.9669     2.4979    37.7331 </r>
       <r>    -6.8668     1.4014    37.9246 </r>
       <r>    -6.7668     2.9307    38.1414 </r>
       <r>    -6.6667    33.0186    39.7053 </r>
       <r>    -6.5667    37.5863    41.4291 </r>
       <r>    -6.4666     9.6690    43.8156 </r>
       <r>    -6.3666    10.3744    45.8323 </r>
       <r>    -6.2665     3.0170    47.5572 </r>
       <r>    -6.1664     1.9886    47.8076 </r>
       <r>    -6.0664    13.9119    48.3070 </r>
       <r>    -5.9663    44.8195    50.9534 </r>
       <r>    -5.8663    22.3193    54.1514 </r>
       <r>    -5.7662    11.5599    56.6961 </r>
       <r>    -5.6662    16.1339    58.9676 </r>
       <r>    -5.5661    11.8012    60.3652 </r>
       <r>    -5.4660     7.4684    61.3292 </r>
       <r>    -5.3660     3.1357    61.8597 </r>
       <r>    -5.2659     6.8516    62.0371 </r>
       <r>    -5.1659    27.8694    65.0343 </r>
       <r>    -5.0658     0.0000    66.0000 </r>
       <r>    -4.9658    10.8931    66.4353 </r>
       <r>    -4.8657     6.6074    67.3108 </r>
       <r>    -4.7656     2.7432    67.7608 </r>
       <r>    -4.6656     5.9512    68.1676 </r>
       <r>    -4.5655    43.1134    69.3810 </r>
       <r>    -4.4655    15.8892    71.5851 </r>
       <r>    -4.3654     9.2321    73.5697 </r>
       <r>    -4.2654    19.1351    75.4413 </r>
       <r>    -4.1653    15.1735    77.6230 </r>
       <r>    -4.0652     1.2490    78.3476 </r>
       <r>    -3.9652     8.3530    78.5830 </r>
       <r>    -3.8651    37.8956    80.6842 </r>
       <r>    -3.7651    16.3058    83.3341 </r>
       <r>    -3.6650     6.6753    84.6406 </r>
       <r>    -3.5650     6.3000    85.2840 </r>
       <r>    -3.4649     6.2305    85.9109 </r>
       <r>    -3.3648     6.1610    86.5308 </r>
       <r>    -3.2648     6.0916    87.1438 </r>
       <r>    -3.1647    37.4374    88.4692 </r>
       <r>    -3.0647     6.4882    91.0748 </r>
       <r>    -2.9646    21.8212    92.1048 </r>
       <r>    -2.8646    34.8052    95.5610 </r>
       <r>    -2.7645    27.5405    99.2678 </r>
       <r>    -2.6645    12.1402   101.1389 </r>
       <r>    -2.5644     6.4815   102.0220 </r>
       <r>    -2.4643    23.0098   102.7577 </r>
       <r>    -2.3643    32.7770   106.1630 </r>
       <r>    -2.2642     2.4008   107.4810 </r>
       <r>    -2.1642    12.3667   108.5139 </r>
       <r>    -2.0641     4.7277   109.3691 </r>
       <r>    -1.9641     9.5771   109.8340 </r>
       <r>    -1.8640    26.6897   111.6484 </r>
       <r>    -1.7639    32.6293   114.8498 </r>
       <r>    -1.6639    35.9387   118.2157 </r>
       <r>    -1.5638    26.6086   121.7482 </r>
       <r>    -1.4638    15.0318   123.7711 </r>
       <r>    -1.3637     9.6714   125.0070 </r>
       <r>    -1.2637    11.1844   127.4692 </r>
       <r>    -1.1636     8.1207   128.4162 </r>
       <r>    -1.0635    14.9453   129.4411 </r>
       <r>    -0.9635    38.8460   132.0900 </r>
       <r>    -0.8634    14.1407   134.7821 </r>
       <r>    -0.7634    10.1150   135.8424 </r>
       <r>    -0.6633    60.9978   139.2481 </r>
       <r>    -0.5633    16.9111   142.5230 </r>
       <r>    -0.4632    10.6077   144.2927 </r>
       <r>    -0.3631    13.7815   145.3470 </r>
       <r>    -0.2631    17.1216   146.9453 </r>
       <r>    -0.1630    14.7923   148.1924 </r>
       <r>    -0.0630     0.0000   150.0000 </r>
       <r>     0.0371    41.5817   153.3511 </r>
       <r>     0.1371    36.3803   155.4878 </r>
       <r>     0.2372     1.4818   160.0243 </r>
       <r>     0.3373     8.9997   160.5297 </r>
       <r>     0.4373    16.9498   161.8280 </r>
       <r>     0.5374    33.4487   164.4763 </r>
       <r>     0.6374    19.7088   168.4179 </r>
       <r>     0.7375     7.0194   169.5324 </r>
       <r>     0.8375    78.2306   171.1071 </r>
       <r>     0.9376    10.3810   174.9551 </r>
       <r>     1.0376   176.7583   177.2293 </r>
       <r>     1.1377    15.4360   179.4066 </r>
       <r>     1.2378    21.2921   181.5246 </r>
       <r>     1.3378    25.5050   185.3271 </r>
       <r>     1.4379    63.9144   189.4742 </r>
       <r>     1.5379    35.3684   194.6898 </r>
       <r>     1.6380    29.1611   198.9356 </r>
       <r>     1.7380     6.2112   200.2287 </r>
       <r>     1.8381    11.4158   201.2273 </r>
       <r>     1.9382     5.8529   202.0912 </r>
       <r>     2.0382     2.9958   202.4544 </r>
       <r>     2.1383    10.4961   203.9883 </r>
       <r>     2.2383     0.0000   204.0000 </r>
       <r>     2.3384     0.0000   204.0000 </r>
       <r>     2.4384     0.0000   204.0000 </r>
       <r>     2.5385     0.0000   204.0000 </r>
       <r>     2.6386     0.0000   204.0000 </r>
       <r>     2.7386     0.0000   204.0000 </r>
       <r>     2.8387     0.0000   204.0000 </r>
       <r>     2.9387     0.0000   204.0000 </r>
       <r>     3.0388     0.0000   204.0000 </r>
       <r>     3.1388     0.0000   204.0000 </r>
       <r>     3.2389     0.0000   204.0000 </r>
       <r>     3.3390     0.0000   204.0000 </r>
       <r>     3.4390     0.0000   204.0000 </r>
       <r>     3.5391     0.0000   204.0000 </r>
       <r>     3.6391     0.0000   204.0000 </r>
       <r>     3.7392     0.0000   204.0000 </r>
       <r>     3.8392     0.0000   204.0000 </r>
       <r>     3.9393     0.0000   204.0000 </r>
       <r>     4.0394     0.0000   204.0000 </r>
       <r>     4.1394     0.0000   204.0000 </r>
      </set>
     </set>
    </array>
   </total>
  </dos>
 </calculation>
 <structure name="finalpos" >
  <crystal>
   <varray name="basis" >
    <v>       9.55575275       0.00000000       0.00000000 </v>
    <v>      -4.77787638       8.27552464       0.00000000 </v>
    <v>       0.00000000       0.00000000      32.62509537 </v>
   </varray>
   <i name="volume">   2579.95558872 </i>
   <varray name="rec_basis" >
    <v>       0.10464900       0.06041913       0.00000000 </v>
    <v>       0.00000000       0.12083826       0.00000000 </v>
    <v>       0.00000000       0.00000000       0.03065125 </v>
   </varray>
  </crystal>
  <varray name="positions" >
   <v>       0.00000000       0.00000000       0.00000000 </v>
   <v>       0.99899185       0.00119768       0.15789616 </v>
   <v>       0.99306206       0.99921902       0.32926484 </v>
   <v>       0.00000001       0.33333336       0.00000000 </v>
   <v>       0.99973003       0.33440155       0.15731866 </v>
   <v>       0.99755230       0.33716000       0.31071416 </v>
   <v>       0.00000002       0.66666672       0.00000000 </v>
   <v>       0.99879142       0.66674227       0.15715877 </v>
   <v>       0.99825271       0.67184946       0.31323403 </v>
   <v>       0.33333334       0.00000000       0.00000000 </v>
   <v>       0.33322267       0.00107267       0.15720447 </v>
   <v>       0.32868480       0.00374951       0.30932831 </v>
   <v>       0.33333335       0.33333336       0.00000000 </v>
   <v>       0.33209461       0.33347254       0.15718829 </v>
   <v>       0.32965415       0.33891853       0.31430230 </v>
   <v>       0.33333336       0.66666672       0.00000000 </v>
   <v>       0.33225816       0.66784871       0.15789653 </v>
   <v>       0.32849135       0.67020213       0.33059163 </v>
   <v>       0.66666668       0.00000000       0.00000000 </v>
   <v>       0.66559919       0.00048475       0.15719747 </v>
   <v>       0.66461765       0.00468667       0.31305873 </v>
   <v>       0.66666668       0.33333336       0.00000000 </v>
   <v>       0.66564839       0.33431608       0.15800007 </v>
   <v>       0.66088630       0.33473180       0.32807676 </v>
   <v>       0.66666670       0.66666672       0.00000000 </v>
   <v>       0.66636733       0.66768800       0.15721776 </v>
   <v>       0.66051992       0.66937957       0.30962753 </v>
   <v>       0.11111113       0.22222222       0.07982145 </v>
   <v>       0.10933462       0.22008250       0.23608005 </v>
   <v>       0.11111114       0.55555561       0.07982145 </v>
   <v>       0.11317572       0.56033880       0.23580006 </v>
   <v>       0.11111116       0.88888894       0.07982145 </v>
   <v>       0.10703929       0.88971099       0.23431260 </v>
   <v>       0.44444450       0.22222222       0.07982145 </v>
   <v>       0.44652352       0.22801047       0.23577138 </v>
   <v>       0.44444450       0.55555561       0.07982145 </v>
   <v>       0.43982774       0.55624245       0.23447035 </v>
   <v>       0.44444451       0.88888894       0.07982145 </v>
   <v>       0.44276843       0.88677301       0.23574643 </v>
   <v>       0.77777779       0.22222222       0.07982145 </v>
   <v>       0.77441667       0.22418349       0.23487016 </v>
   <v>       0.77777781       0.55555561       0.07982145 </v>
   <v>       0.77607049       0.55385315       0.23576063 </v>
   <v>       0.77777784       0.88888894       0.07982145 </v>
   <v>       0.77960815       0.89357400       0.23552554 </v>
   <v>       0.96978134       0.98283688       0.39623890 </v>
   <v>       0.25295206       0.94732145       0.41339352 </v>
   <v>       0.89232087       0.23712003       0.41222010 </v>
   <v>       0.65341328       0.33906356       0.39393672 </v>
   <v>       0.61758675       0.61102970       0.41336512 </v>
   <v>       0.32081619       0.68775617       0.39668626 </v>
   <v>       0.95155706       0.06682072       0.40876027 </v>
   <v>       0.06088726       0.98303353       0.41058931 </v>
   <v>       0.35360191       0.05137418       0.41578236 </v>
   <v>       0.23346845       0.93562488       0.38307115 </v>
   <v>       0.99667938       0.33807721       0.41141670 </v>
   <v>       0.86451484       0.21303665       0.38241501 </v>
   <v>       0.65467437       0.43507543       0.40609440 </v>
   <v>       0.73331732       0.32016445       0.40828508 </v>
   <v>       0.71930557       0.71366926       0.40995952 </v>
   <v>       0.56863818       0.58999020       0.38548999 </v>
   <v>       0.30435310       0.77506720       0.40780805 </v>
   <v>       0.40619131       0.68534361       0.41278765 </v>
  </varray>
  <varray name="selective"  type="logical" >
   <v type="logical" >  F  F  F </v>
   <v type="logical" >  T  T  T </v>
   <v type="logical" >  T  T  T </v>
   <v type="logical" >  F  F  F </v>
   <v type="logical" >  T  T  T </v>
   <v type="logical" >  T  T  T </v>
   <v type="logical" >  F  F  F </v>
   <v type="logical" >  T  T  T </v>
   <v type="logical" >  T  T  T </v>
   <v type="logical" >  F  F  F </v>
   <v type="logical" >  T  T  T </v>
   <v type="logical" >  T  T  T </v>
   <v type="logical" >  F  F  F </v>
   <v type="logical" >  T  T  T </v>
   <v type="logical" >  T  T  T </v>
   <v type="logical" >  F  F  F </v>
   <v type="logical" >  T  T  T </v>
   <v type="logical" >  T  T  T </v>
   <v type="logical" >  F  F  F </v>
   <v type="logical" >  T  T  T </v>
   <v type="logical" >  T  T  T </v>
   <v type="logical" >  F  F  F </v>
   <v type="logical" >  T  T  T </v>
   <v type="logical" >  T  T  T </v>
   <v type="logical" >  F  F  F </v>
   <v type="logical" >  T  T  T </v>
   <v type="logical" >  T  T  T </v>
   <v type="logical" >  F  F  F </v>
   <v type="logical" >  T  T  T </v>
   <v type="logical" >  F  F  F </v>
   <v type="logical" >  T  T  T </v>
   <v type="logical" >  F  F  F </v>
   <v type="logical" >  T  T  T </v>
   <v type="logical" >  F  F  F </v>
   <v type="logical" >  T  T  T </v>
   <v type="logical" >  F  F  F </v>
   <v type="logical" >  T  T  T </v>
   <v type="logical" >  F  F  F </v>
   <v type="logical" >  T  T  T </v>
   <v type="logical" >  F  F  F </v>
   <v type="logical" >  T  T  T </v>
   <v type="logical" >  F  F  F </v>
   <v type="logical" >  T  T  T </v>
   <v type="logical" >  F  F  F </v>
   <v type="logical" >  T  T  T </v>
   <v type="logical" >  T  T  T </v>
   <v type="logical" >  T  T  T </v>
   <v type="logical" >  T  T  T </v>
   <v type="logical" >  T  T  T </v>
   <v type="logical" >  T  T  T </v>
   <v type="logical" >  T  T  T </v>
   <v type="logical" >  T  T  T </v>
   <v type="logical" >  T  T  T </v>
   <v type="logical" >  T  T  T </v>
   <v type="logical" >  T  T  T </v>
   <v type="logical" >  T  T  T </v>
   <v type="logical" >  T  T  T </v>
   <v type="logical" >  T  T  T </v>
   <v type="logical" >  T  T  T </v>
   <v type="logical" >  T  T  T </v>
   <v type="logical" >  T  T  T </v>
   <v type="logical" >  T  T  T </v>
   <v type="logical" >  T  T  T </v>
  </varray>
  <nose>
   <v>      -3.00000000       0.00000000       0.00010000       0.00010000 </v>
  </nose>
 </structure>
</modeling>
