Mg_slab_in_a_box                        
           1
     9.555753    0.000000    0.000000
    -4.777876    8.275525    0.000000
     0.000000    0.000000   32.625095
   Mg   O    H 
  45   6  12
Direct configuration=     1
   0.00000000  0.00000000  0.00000000
   0.99899185  0.00119768  0.15789616
   0.99306206  0.99921902  0.32926484
   0.00000001  0.33333336  0.00000000
   0.99973003  0.33440155  0.15731866
   0.99755230  0.33716000  0.31071416
   0.00000002  0.66666672  0.00000000
   0.99879142  0.66674227  0.15715877
   0.99825271  0.67184946  0.31323403
   0.33333334  0.00000000  0.00000000
   0.33322267  0.00107267  0.15720447
   0.32868480  0.00374951  0.30932831
   0.33333335  0.33333336  0.00000000
   0.33209461  0.33347254  0.15718829
   0.32965415  0.33891853  0.31430230
   0.33333336  0.66666672  0.00000000
   0.33225816  0.66784871  0.15789653
   0.32849135  0.67020213  0.33059163
   0.66666668  0.00000000  0.00000000
   0.66559919  0.00048475  0.15719747
   0.66461765  0.00468667  0.31305873
   0.66666668  0.33333336  0.00000000
   0.66564839  0.33431608  0.15800007
   0.66088630  0.33473180  0.32807676
   0.66666670  0.66666672  0.00000000
   0.66636733  0.66768800  0.15721776
   0.66051992  0.66937957  0.30962753
   0.11111113  0.22222222  0.07982145
   0.10933462  0.22008250  0.23608005
   0.11111114  0.55555561  0.07982145
   0.11317572  0.56033880  0.23580006
   0.11111116  0.88888894  0.07982145
   0.10703929  0.88971099  0.23431260
   0.44444450  0.22222222  0.07982145
   0.44652352  0.22801047  0.23577138
   0.44444450  0.55555561  0.07982145
   0.43982774  0.55624245  0.23447035
   0.44444451  0.88888894  0.07982145
   0.44276843  0.88677301  0.23574643
   0.77777779  0.22222222  0.07982145
   0.77441667  0.22418349  0.23487016
   0.77777781  0.55555561  0.07982145
   0.77607049  0.55385315  0.23576063
   0.77777784  0.88888894  0.07982145
   0.77960815  0.89357400  0.23552554
   0.96978134  0.98283688  0.39623890
   0.25295206  0.94732145  0.41339352
   0.89232087  0.23712003  0.41222010
   0.65341328  0.33906356  0.39393672
   0.61758675  0.61102970  0.41336512
   0.32081619  0.68775617  0.39668626
   0.95155706  0.06682072  0.40876027
   0.06088726  0.98303353  0.41058931
   0.35360191  0.05137418  0.41578236
   0.23346845  0.93562488  0.38307115
   0.99667938  0.33807721  0.41141670
   0.86451484  0.21303665  0.38241501
   0.65467437  0.43507543  0.40609440
   0.73331732  0.32016445  0.40828508
   0.71930557  0.71366926  0.40995952
   0.56863818  0.58999020  0.38548999
   0.30435310  0.77506720  0.40780805
   0.40619131  0.68534361  0.41278765
