  63  63   0   0
  0.4095168E+02  0.9555753E-09  0.9555753E-09  0.3262510E-08  0.5000000E-15
  1.000000000000000E-004
  CAR 
 Mg_slab_in_a_box                        
      4.25419725    -25.87315877  301     -0.56341556      1.00000000
    -25.873  0.0000E+00  0.0000E+00
    -25.773  0.0000E+00  0.0000E+00
    -25.672  0.0000E+00  0.0000E+00
    -25.572  0.0000E+00  0.0000E+00
    -25.471  0.0000E+00  0.0000E+00
    -25.371  0.0000E+00  0.0000E+00
    -25.271  0.0000E+00  0.0000E+00
    -25.170  0.0000E+00  0.0000E+00
    -25.070  0.0000E+00  0.0000E+00
    -24.969  0.0000E+00  0.0000E+00
    -24.869  0.0000E+00  0.0000E+00
    -24.768  0.0000E+00  0.0000E+00
    -24.668  0.0000E+00  0.0000E+00
    -24.568  0.0000E+00  0.0000E+00
    -24.467  0.0000E+00  0.0000E+00
    -24.367  0.0000E+00  0.0000E+00
    -24.266  0.0000E+00  0.0000E+00
    -24.166  0.0000E+00  0.0000E+00
    -24.066  0.0000E+00  0.0000E+00
    -23.965  0.0000E+00  0.0000E+00
    -23.865  0.0000E+00  0.2000E+01
    -23.764  0.0000E+00  0.2000E+01
    -23.664  0.0000E+00  0.2000E+01
    -23.563  0.0000E+00  0.4000E+01
    -23.463  0.6447E+02  0.5464E+01
    -23.363  0.5176E+02  0.6882E+01
    -23.262  0.0000E+00  0.8000E+01
    -23.162  0.0000E+00  0.1000E+02
    -23.061  0.0000E+00  0.1000E+02
    -22.961  0.0000E+00  0.1000E+02
    -22.860  0.0000E+00  0.1000E+02
    -22.760  0.0000E+00  0.1000E+02
    -22.660  0.0000E+00  0.1000E+02
    -22.559  0.0000E+00  0.1000E+02
    -22.459  0.0000E+00  0.1000E+02
    -22.358  0.0000E+00  0.1000E+02
    -22.258  0.0000E+00  0.1000E+02
    -22.157  0.0000E+00  0.1000E+02
    -22.057  0.0000E+00  0.1000E+02
    -21.957  0.0000E+00  0.1200E+02
    -21.856  0.0000E+00  0.1200E+02
    -21.756  0.0000E+00  0.1200E+02
    -21.655  0.0000E+00  0.1200E+02
    -21.555  0.0000E+00  0.1200E+02
    -21.454  0.0000E+00  0.1200E+02
    -21.354  0.0000E+00  0.1200E+02
    -21.254  0.0000E+00  0.1200E+02
    -21.153  0.0000E+00  0.1200E+02
    -21.053  0.0000E+00  0.1200E+02
    -20.952  0.0000E+00  0.1200E+02
    -20.852  0.0000E+00  0.1200E+02
    -20.752  0.0000E+00  0.1200E+02
    -20.651  0.0000E+00  0.1200E+02
    -20.551  0.0000E+00  0.1200E+02
    -20.450  0.0000E+00  0.1200E+02
    -20.350  0.0000E+00  0.1200E+02
    -20.249  0.0000E+00  0.1200E+02
    -20.149  0.0000E+00  0.1200E+02
    -20.049  0.0000E+00  0.1200E+02
    -19.948  0.0000E+00  0.1200E+02
    -19.848  0.0000E+00  0.1200E+02
    -19.747  0.0000E+00  0.1200E+02
    -19.647  0.0000E+00  0.1200E+02
    -19.546  0.0000E+00  0.1200E+02
    -19.446  0.0000E+00  0.1200E+02
    -19.346  0.0000E+00  0.1200E+02
    -19.245  0.0000E+00  0.1200E+02
    -19.145  0.0000E+00  0.1200E+02
    -19.044  0.0000E+00  0.1200E+02
    -18.944  0.0000E+00  0.1200E+02
    -18.843  0.0000E+00  0.1200E+02
    -18.743  0.0000E+00  0.1200E+02
    -18.643  0.0000E+00  0.1200E+02
    -18.542  0.0000E+00  0.1200E+02
    -18.442  0.0000E+00  0.1200E+02
    -18.341  0.0000E+00  0.1200E+02
    -18.241  0.0000E+00  0.1200E+02
    -18.140  0.0000E+00  0.1200E+02
    -18.040  0.0000E+00  0.1200E+02
    -17.940  0.0000E+00  0.1200E+02
    -17.839  0.0000E+00  0.1200E+02
    -17.739  0.0000E+00  0.1200E+02
    -17.638  0.0000E+00  0.1200E+02
    -17.538  0.0000E+00  0.1200E+02
    -17.437  0.0000E+00  0.1200E+02
    -17.337  0.0000E+00  0.1200E+02
    -17.237  0.0000E+00  0.1200E+02
    -17.136  0.0000E+00  0.1200E+02
    -17.036  0.0000E+00  0.1200E+02
    -16.935  0.0000E+00  0.1200E+02
    -16.835  0.0000E+00  0.1200E+02
    -16.735  0.0000E+00  0.1200E+02
    -16.634  0.0000E+00  0.1200E+02
    -16.534  0.0000E+00  0.1200E+02
    -16.433  0.0000E+00  0.1200E+02
    -16.333  0.0000E+00  0.1200E+02
    -16.232  0.0000E+00  0.1200E+02
    -16.132  0.0000E+00  0.1200E+02
    -16.032  0.0000E+00  0.1200E+02
    -15.931  0.0000E+00  0.1200E+02
    -15.831  0.0000E+00  0.1200E+02
    -15.730  0.0000E+00  0.1200E+02
    -15.630  0.0000E+00  0.1200E+02
    -15.529  0.0000E+00  0.1200E+02
    -15.429  0.0000E+00  0.1200E+02
    -15.329  0.0000E+00  0.1200E+02
    -15.228  0.0000E+00  0.1200E+02
    -15.128  0.0000E+00  0.1200E+02
    -15.027  0.0000E+00  0.1200E+02
    -14.927  0.0000E+00  0.1200E+02
    -14.826  0.0000E+00  0.1200E+02
    -14.726  0.0000E+00  0.1200E+02
    -14.626  0.0000E+00  0.1200E+02
    -14.525  0.0000E+00  0.1200E+02
    -14.425  0.0000E+00  0.1200E+02
    -14.324  0.0000E+00  0.1200E+02
    -14.224  0.0000E+00  0.1200E+02
    -14.123  0.0000E+00  0.1200E+02
    -14.023  0.0000E+00  0.1200E+02
    -13.923  0.0000E+00  0.1200E+02
    -13.822  0.0000E+00  0.1200E+02
    -13.722  0.0000E+00  0.1200E+02
    -13.621  0.0000E+00  0.1200E+02
    -13.521  0.0000E+00  0.1200E+02
    -13.421  0.0000E+00  0.1200E+02
    -13.320  0.0000E+00  0.1200E+02
    -13.220  0.0000E+00  0.1200E+02
    -13.119  0.0000E+00  0.1200E+02
    -13.019  0.0000E+00  0.1200E+02
    -12.918  0.0000E+00  0.1200E+02
    -12.818  0.0000E+00  0.1200E+02
    -12.718  0.0000E+00  0.1200E+02
    -12.617  0.0000E+00  0.1200E+02
    -12.517  0.0000E+00  0.1200E+02
    -12.416  0.0000E+00  0.1200E+02
    -12.316  0.0000E+00  0.1200E+02
    -12.215  0.0000E+00  0.1200E+02
    -12.115  0.0000E+00  0.1200E+02
    -12.015  0.0000E+00  0.1200E+02
    -11.914  0.0000E+00  0.1400E+02
    -11.814  0.0000E+00  0.1400E+02
    -11.713  0.0000E+00  0.1600E+02
    -11.613  0.0000E+00  0.1800E+02
    -11.512  0.0000E+00  0.1800E+02
    -11.412  0.0000E+00  0.1800E+02
    -11.312  0.0000E+00  0.1800E+02
    -11.211  0.0000E+00  0.1800E+02
    -11.111  0.0000E+00  0.1800E+02
    -11.010  0.0000E+00  0.2000E+02
    -10.910  0.0000E+00  0.2200E+02
    -10.809  0.0000E+00  0.2200E+02
    -10.709  0.0000E+00  0.2200E+02
    -10.609  0.0000E+00  0.2200E+02
    -10.508  0.0000E+00  0.2200E+02
    -10.408  0.0000E+00  0.2200E+02
    -10.307  0.0000E+00  0.2200E+02
    -10.207  0.0000E+00  0.2200E+02
    -10.107  0.0000E+00  0.2200E+02
    -10.006  0.0000E+00  0.2200E+02
     -9.906  0.0000E+00  0.2400E+02
     -9.805  0.0000E+00  0.2400E+02
     -9.705  0.0000E+00  0.2400E+02
     -9.604  0.0000E+00  0.2400E+02
     -9.504  0.0000E+00  0.2400E+02
     -9.404  0.0000E+00  0.2400E+02
     -9.303  0.0000E+00  0.2400E+02
     -9.203  0.0000E+00  0.2400E+02
     -9.102  0.0000E+00  0.2400E+02
     -9.002  0.0000E+00  0.2400E+02
     -8.901  0.0000E+00  0.2400E+02
     -8.801  0.0000E+00  0.2600E+02
     -8.701  0.0000E+00  0.2600E+02
     -8.600  0.0000E+00  0.2600E+02
     -8.500  0.0000E+00  0.2800E+02
     -8.399  0.0000E+00  0.2800E+02
     -8.299  0.0000E+00  0.3000E+02
     -8.198  0.0000E+00  0.3000E+02
     -8.098  0.0000E+00  0.3000E+02
     -7.998  0.0000E+00  0.3000E+02
     -7.897  0.3512E+02  0.3026E+02
     -7.797  0.4611E+02  0.3388E+02
     -7.696  0.0000E+00  0.3400E+02
     -7.596  0.0000E+00  0.3400E+02
     -7.495  0.0000E+00  0.3400E+02
     -7.395  0.0000E+00  0.3400E+02
     -7.295  0.7587E+01  0.3418E+02
     -7.194  0.3016E+01  0.3607E+02
     -7.094  0.5616E+01  0.3669E+02
     -6.993  0.4405E+01  0.3720E+02
     -6.893  0.3194E+01  0.3758E+02
     -6.792  0.1983E+01  0.3784E+02
     -6.692  0.2559E+01  0.3803E+02
     -6.592  0.1607E+02  0.3852E+02
     -6.491  0.7211E+01  0.4044E+02
     -6.391  0.2775E+02  0.4206E+02
     -6.290  0.5146E+01  0.4386E+02
     -6.190  0.3723E+02  0.4655E+02
     -6.090  0.6087E+01  0.4787E+02
     -5.989  0.1214E+02  0.4952E+02
     -5.889  0.2059E+02  0.5117E+02
     -5.788  0.3099E+02  0.5375E+02
     -5.688  0.2684E+02  0.5678E+02
     -5.587  0.6873E+01  0.5864E+02
     -5.487  0.1408E+02  0.5969E+02
     -5.387  0.9734E+01  0.6089E+02
     -5.286  0.5392E+01  0.6165E+02
     -5.186  0.1172E+01  0.6197E+02
     -5.085  0.5366E+01  0.6416E+02
     -4.985  0.0000E+00  0.6600E+02
     -4.884  0.0000E+00  0.6600E+02
     -4.784  0.9695E+01  0.6687E+02
     -4.684  0.4507E+01  0.6758E+02
     -4.583  0.4205E+01  0.6794E+02
     -4.483  0.7520E+01  0.6851E+02
     -4.382  0.1151E+02  0.7093E+02
     -4.282  0.2094E+02  0.7255E+02
     -4.181  0.2320E+02  0.7444E+02
     -4.081  0.2186E+02  0.7672E+02
     -3.981  0.6686E+01  0.7815E+02
     -3.880  0.1335E+01  0.7841E+02
     -3.780  0.2051E+02  0.7940E+02
     -3.679  0.3089E+02  0.8281E+02
     -3.579  0.4918E+01  0.8437E+02
     -3.478  0.6664E+01  0.8501E+02
     -3.378  0.6489E+01  0.8567E+02
     -3.278  0.6313E+01  0.8631E+02
     -3.177  0.6137E+01  0.8694E+02
     -3.077  0.7123E+01  0.8757E+02
     -2.976  0.5360E+01  0.9087E+02
     -2.876  0.1055E+02  0.9178E+02
     -2.776  0.3984E+02  0.9422E+02
     -2.675  0.3425E+02  0.9811E+02
     -2.575  0.1693E+02  0.1006E+03
     -2.474  0.7193E+01  0.1017E+03
     -2.374  0.7224E+01  0.1024E+03
     -2.273  0.3318E+02  0.1054E+03
     -2.173  0.2866E+01  0.1074E+03
     -2.073  0.1559E+02  0.1082E+03
     -1.972  0.5827E+01  0.1093E+03
     -1.872  0.6625E+01  0.1097E+03
     -1.771  0.2530E+02  0.1112E+03
     -1.671  0.3309E+02  0.1140E+03
     -1.570  0.3388E+02  0.1174E+03
     -1.470  0.3049E+02  0.1208E+03
     -1.370  0.1738E+02  0.1232E+03
     -1.269  0.2327E+02  0.1249E+03
     -1.169  0.1308E+02  0.1271E+03
     -1.068  0.9633E+01  0.1283E+03
     -0.968  0.1234E+02  0.1293E+03
     -0.867  0.3462E+02  0.1315E+03
     -0.767  0.1816E+02  0.1344E+03
     -0.667  0.1086E+02  0.1358E+03
     -0.566  0.3550E+02  0.1379E+03
     -0.466  0.2371E+02  0.1421E+03
     -0.365  0.1659E+02  0.1442E+03
     -0.265  0.1293E+02  0.1452E+03
     -0.164  0.7885E+01  0.1468E+03
     -0.064  0.1519E+02  0.1479E+03
      0.036  0.2001E+02  0.1498E+03
      0.137  0.3414E+02  0.1524E+03
      0.237  0.7993E+01  0.1558E+03
      0.338  0.2745E+02  0.1586E+03
      0.438  0.6541E+01  0.1601E+03
      0.538  0.5106E+02  0.1621E+03
      0.639  0.2018E+02  0.1651E+03
      0.739  0.2256E+02  0.1684E+03
      0.840  0.2284E+02  0.1699E+03
      0.940  0.2991E+02  0.1722E+03
      1.041  0.3417E+02  0.1754E+03
      1.141  0.1399E+02  0.1778E+03
      1.241  0.1370E+02  0.1799E+03
      1.342  0.1529E+02  0.1820E+03
      1.442  0.3113E+02  0.1855E+03
      1.543  0.5268E+02  0.1898E+03
      1.643  0.3932E+02  0.1944E+03
      1.744  0.3572E+02  0.1983E+03
      1.844  0.1637E+02  0.2009E+03
      1.944  0.1033E+01  0.2020E+03
      2.045  0.2327E+01  0.2022E+03
      2.145  0.6860E+01  0.2026E+03
      2.246  0.2476E+02  0.2038E+03
      2.346  0.0000E+00  0.2040E+03
      2.447  0.0000E+00  0.2040E+03
      2.547  0.0000E+00  0.2040E+03
      2.647  0.0000E+00  0.2040E+03
      2.748  0.0000E+00  0.2040E+03
      2.848  0.0000E+00  0.2040E+03
      2.949  0.0000E+00  0.2040E+03
      3.049  0.0000E+00  0.2040E+03
      3.150  0.0000E+00  0.2040E+03
      3.250  0.0000E+00  0.2040E+03
      3.350  0.0000E+00  0.2040E+03
      3.451  0.0000E+00  0.2040E+03
      3.551  0.0000E+00  0.2040E+03
      3.652  0.0000E+00  0.2040E+03
      3.752  0.0000E+00  0.2040E+03
      3.852  0.0000E+00  0.2040E+03
      3.953  0.0000E+00  0.2040E+03
      4.053  0.0000E+00  0.2040E+03
      4.154  0.0000E+00  0.2040E+03
      4.254  0.0000E+00  0.2040E+03
