       N       E                     dE             d eps       ncg     rms          rms(c)
RMM:   1     0.124114442132E+04    0.12411E+04   -0.27931E+04   510   0.785E+02
RMM:   2     0.544863891356E+03   -0.69628E+03   -0.75592E+03   510   0.166E+02
RMM:   3     0.310288571690E+03   -0.23458E+03   -0.29898E+03   510   0.832E+01
RMM:   4     0.137987711332E+03   -0.17230E+03   -0.14868E+03   510   0.788E+01
RMM:   5     0.215497404383E+02   -0.11644E+03   -0.93303E+02   510   0.633E+01
RMM:   6    -0.415645341495E+02   -0.63114E+02   -0.48016E+02   510   0.452E+01
RMM:   7    -0.673180513966E+02   -0.25754E+02   -0.19703E+02   510   0.261E+01
RMM:   8    -0.747166492272E+02   -0.73986E+01   -0.61064E+01   510   0.146E+01
RMM:   9    -0.775746976691E+02   -0.28580E+01   -0.27023E+01  1543   0.853E+00
RMM:  10    -0.781148626727E+02   -0.54017E+00   -0.48342E+00  1805   0.341E+00
RMM:  11    -0.781375197965E+02   -0.22657E-01   -0.31069E-01  1728   0.880E-01
RMM:  12    -0.781421392149E+02   -0.46194E-02   -0.52851E-02  1787   0.355E-01    0.198E+01
RMM:  13    -0.693165241712E+02    0.88256E+01   -0.61313E+01  1410   0.141E+01    0.815E+00
RMM:  14    -0.978446245269E+02   -0.28528E+02   -0.19550E+01  1714   0.421E+00    0.112E+01
RMM:  15    -0.675648584697E+02    0.30280E+02   -0.34108E+00  1460   0.166E+00    0.486E+00
RMM:  16    -0.674709092094E+02    0.93949E-01   -0.10386E+00  1611   0.175E+00    0.244E+00
RMM:  17    -0.673277113588E+02    0.14320E+00   -0.43711E-01  1331   0.125E+00    0.826E-01
RMM:  18    -0.673003830569E+02    0.27328E-01   -0.57454E-02  1654   0.489E-01    0.436E-01
RMM:  19    -0.673009440954E+02   -0.56104E-03   -0.59751E-02  1382   0.460E-01    0.311E-01
RMM:  20    -0.673001614353E+02    0.78266E-03   -0.12281E-02  1563   0.226E-01    0.921E-02
RMM:  21    -0.672994997478E+02    0.66169E-03   -0.29055E-03  1610   0.967E-02    0.569E-02
RMM:  22    -0.672937321341E+02    0.57676E-02   -0.88586E-04  1407   0.514E-02    0.313E-02
RMM:  23    -0.672861565658E+02    0.75756E-02   -0.63042E-04  1232   0.432E-02    0.241E-02
RMM:  24    -0.672876295116E+02   -0.14729E-02   -0.28839E-04  1139   0.350E-02    0.145E-02
RMM:  25    -0.672884847090E+02   -0.85520E-03   -0.21888E-04  1109   0.312E-02    0.739E-03
RMM:  26    -0.672882551381E+02    0.22957E-03   -0.23369E-04  1038   0.244E-02    0.521E-03
RMM:  27    -0.672881190127E+02    0.13613E-03   -0.18249E-04  1007   0.176E-02    0.343E-03
RMM:  28    -0.672881115752E+02    0.74375E-05   -0.49268E-05   872   0.948E-03    0.281E-03
RMM:  29    -0.672881132859E+02   -0.17107E-05   -0.28038E-05   882   0.845E-03
   1 F= -.67288113E+02 E0= -.67288113E+02  d E =0.000000E+00
