 vasp.5.4.4.18Apr17-6-g9f103f2a35 (build Jun 08 2018 12:06:12) complex          
  
 executed on             LinuxIFC date 2019.06.06  06:58:50
 running on   72 total cores
 distrk:  each k-point on   72 cores,    1 groups
 distr:  one band on NCORES_PER_BAND=  24 cores,    3 groups


--------------------------------------------------------------------------------------------------------


 INCAR:
 POTCAR:    PAW_PBE Mg 13Apr2007                  
 POTCAR:    PAW_PBE O 08Apr2002                   
 POTCAR:    PAW_PBE H 15Jun2001                   

 ----------------------------------------------------------------------------- 
|                                                                             |
|           W    W    AA    RRRRR   N    N  II  N    N   GGGG   !!!           |
|           W    W   A  A   R    R  NN   N  II  NN   N  G    G  !!!           |
|           W    W  A    A  R    R  N N  N  II  N N  N  G       !!!           |
|           W WW W  AAAAAA  RRRRR   N  N N  II  N  N N  G  GGG   !            |
|           WW  WW  A    A  R   R   N   NN  II  N   NN  G    G                |
|           W    W  A    A  R    R  N    N  II  N    N   GGGG   !!!           |
|                                                                             |
|      For optimal performance we recommend to set                            |
|        NCORE= 4 - approx SQRT( number of cores)                             |
|      NCORE specifies how many cores store one orbital (NPAR=cpu/NCORE).     |
|      This setting can  greatly improve the performance of VASP for DFT.     |
|      The default,   NCORE=1            might be grossly inefficient         |
|      on modern multi-core architectures or massively parallel machines.     |
|      Do your own testing !!!!                                               |
|      Unfortunately you need to use the default for GW and RPA calculations. |
|      (for HF NCORE is supported but not extensively tested yet)             |
|                                                                             |
 ----------------------------------------------------------------------------- 


 ----------------------------------------------------------------------------- 
|                                                                             |
|  ADVICE TO THIS USER RUNNING 'VASP/VAMP'   (HEAR YOUR MASTER'S VOICE ...):  |
|                                                                             |
|      You have switched on vdW-DFT.                                          |
|      This routine was written and supplied by Jiri Klimes.                  |
|      We recommed that you carefully read and cite the following             |
|      publication                                                            |
|      J. Klimes, D.R. Bowler, A. Michelides                                  |
|        J. Phys.: Cond Matt. 22 022201 (2010)                                |
|      J. Klimes, D.R. Bowler, A. Michelides                                  |
|        Phys. Rev. B. 83, 195131 (2011)                                      |
|      and references therein.                                                |
|                                                                             |
 ----------------------------------------------------------------------------- 

 POTCAR:    PAW_PBE Mg 13Apr2007                  
   VRHFIN =Mg: s2p0                                                             
   LEXCH  = PE                                                                  
   EATOM  =    23.0369 eV,    1.6932 Ry                                         
                                                                                
   TITEL  = PAW_PBE Mg 13Apr2007                                                
   LULTRA =        F    use ultrasoft PP ?                                      
   IUNSCR =        1    unscreen: 0-lin 1-nonlin 2-no                           
   RPACOR =    1.500    partial core radius                                     
   POMASS =   24.305; ZVAL   =    2.000    mass and valenz                      
   RCORE  =    2.000    outmost cutoff radius                                   
   RWIGS  =    2.880; RWIGS  =    1.524    wigner-seitz radius (au A)           
   ENMAX  =  200.000; ENMIN  =  100.000 eV                                      
   RCLOC  =    1.506    cutoff for local pot                                    
   LCOR   =        T    correct aug charges                                     
   LPAW   =        T    paw PP                                                  
   EAUG   =  454.734                                                            
   DEXC   =    0.000                                                            
   RMAX   =    2.045    core radius for proj-oper                               
   RAUG   =    1.300    factor for augmentation sphere                          
   RDEP   =    2.025    radius for radial grids                                 
   RDEPT  =    1.942    core radius for aug-charge                              
                                                                                
   Atomic configuration                                                         
    6 entries                                                                   
     n  l   j            E        occ.                                          
     1  0  0.50     -1259.6230   2.0000                                         
     2  0  0.50       -79.8442   2.0000                                         
     2  1  1.50       -46.6121   6.0000                                         
     3  0  0.50        -4.7055   2.0000                                         
     3  1  0.50        -1.3660   0.0000                                         
     3  2  1.50        -1.3606   0.0000                                         
   Description                                                                  
     l       E           TYP  RCUT    TYP  RCUT                                 
     0     -4.7054661     23  2.000                                             
     0     27.2116520     23  2.000                                             
     1      1.3605826     23  2.000                                             
     1     27.2116520     23  2.000                                             
     2     -1.3605826     23  2.000                                             
  local pseudopotential read in
  partial core-charges read in
  partial kinetic energy density read in
  atomic valenz-charges read in
  non local Contribution for L=           0  read in
    real space projection operators read in
  non local Contribution for L=           0  read in
    real space projection operators read in
  non local Contribution for L=           1  read in
    real space projection operators read in
  non local Contribution for L=           1  read in
    real space projection operators read in
  non local Contribution for L=           2  read in
    real space projection operators read in
    PAW grid and wavefunctions read in
 
   number of l-projection  operators is LMAX  =           5
   number of lm-projection operators is LMMAX =          13
 
 POTCAR:    PAW_PBE O 08Apr2002                   
   VRHFIN =O: s2p4                                                              
   LEXCH  = PE                                                                  
   EATOM  =   432.3788 eV,   31.7789 Ry                                         
                                                                                
   TITEL  = PAW_PBE O 08Apr2002                                                 
   LULTRA =        F    use ultrasoft PP ?                                      
   IUNSCR =        1    unscreen: 0-lin 1-nonlin 2-no                           
   RPACOR =    1.200    partial core radius                                     
   POMASS =   16.000; ZVAL   =    6.000    mass and valenz                      
   RCORE  =    1.520    outmost cutoff radius                                   
   RWIGS  =    1.550; RWIGS  =    0.820    wigner-seitz radius (au A)           
   ENMAX  =  400.000; ENMIN  =  300.000 eV                                      
   ICORE  =        2    local potential                                         
   LCOR   =        T    correct aug charges                                     
   LPAW   =        T    paw PP                                                  
   EAUG   =  605.392                                                            
   DEXC   =    0.000                                                            
   RMAX   =    1.553    core radius for proj-oper                               
   RAUG   =    1.300    factor for augmentation sphere                          
   RDEP   =    1.550    radius for radial grids                                 
   RDEPT  =    1.329    core radius for aug-charge                              
                                                                                
   Atomic configuration                                                         
    4 entries                                                                   
     n  l   j            E        occ.                                          
     1  0  0.50      -514.6923   2.0000                                         
     2  0  0.50       -23.9615   2.0000                                         
     2  1  0.50        -9.0305   4.0000                                         
     3  2  1.50        -9.5241   0.0000                                         
   Description                                                                  
     l       E           TYP  RCUT    TYP  RCUT                                 
     0    -23.9615318     23  1.200                                             
     0     -9.5240782     23  1.200                                             
     1     -9.0304911     23  1.520                                             
     1      8.1634956     23  1.520                                             
     2     -9.5240782      7  1.500                                             
  local pseudopotential read in
  partial core-charges read in
  partial kinetic energy density read in
  kinetic energy density of atom read in
  atomic valenz-charges read in
  non local Contribution for L=           0  read in
    real space projection operators read in
  non local Contribution for L=           0  read in
    real space projection operators read in
  non local Contribution for L=           1  read in
    real space projection operators read in
  non local Contribution for L=           1  read in
    real space projection operators read in
    PAW grid and wavefunctions read in
 
   number of l-projection  operators is LMAX  =           4
   number of lm-projection operators is LMMAX =           8
 
 POTCAR:    PAW_PBE H 15Jun2001                   
   VRHFIN =H: ultrasoft test                                                    
   LEXCH  = PE                                                                  
   EATOM  =    12.4884 eV,    0.9179 Ry                                         
                                                                                
   TITEL  = PAW_PBE H 15Jun2001                                                 
   LULTRA =        F    use ultrasoft PP ?                                      
   IUNSCR =        0    unscreen: 0-lin 1-nonlin 2-no                           
   RPACOR =    0.000    partial core radius                                     
   POMASS =    1.000; ZVAL   =    1.000    mass and valenz                      
   RCORE  =    1.100    outmost cutoff radius                                   
   RWIGS  =    0.700; RWIGS  =    0.370    wigner-seitz radius (au A)           
   ENMAX  =  250.000; ENMIN  =  200.000 eV                                      
   RCLOC  =    0.701    cutoff for local pot                                    
   LCOR   =        T    correct aug charges                                     
   LPAW   =        T    paw PP                                                  
   EAUG   =  400.000                                                            
   RMAX   =    1.123    core radius for proj-oper                               
   RAUG   =    1.200    factor for augmentation sphere                          
   RDEP   =    1.112    radius for radial grids                                 
   RDEPT  =    0.926    core radius for aug-charge                              
                                                                                
   Atomic configuration                                                         
    2 entries                                                                   
     n  l   j            E        occ.                                          
     1  0  0.50        -6.4927   1.0000                                         
     2  1  0.50        -3.4015   0.0000                                         
   Description                                                                  
     l       E           TYP  RCUT    TYP  RCUT                                 
     0     -6.4927494     23  1.100                                             
     0      6.8029130     23  1.100                                             
     1     -4.0817478     23  1.100                                             
  local pseudopotential read in
  atomic valenz-charges read in
  non local Contribution for L=           0  read in
    real space projection operators read in
  non local Contribution for L=           0  read in
    real space projection operators read in
  non local Contribution for L=           1  read in
    real space projection operators read in
    PAW grid and wavefunctions read in
 
   number of l-projection  operators is LMAX  =           3
   number of lm-projection operators is LMMAX =           5
 
 Optimization of the real space projectors (new method)

 maximal supplied QI-value         = 18.90
 optimisation between [QCUT,QGAM] = [ 11.53, 23.24] = [ 37.21,151.29] Ry 
 Optimized for a Real-space Cutoff    1.28 Angstroem

   l    n(q)    QCUT    max X(q) W(low)/X(q) W(high)/X(q)  e(spline) 
   0      9    11.527    28.265    0.62E-04    0.53E-04    0.73E-07
   0      9    11.527    10.429    0.52E-04    0.40E-04    0.58E-07
   1      8    11.527    13.073    0.98E-04    0.18E-03    0.86E-07
   1      8    11.527     9.625    0.79E-04    0.15E-03    0.74E-07
   2      8    11.527     4.652    0.22E-03    0.72E-04    0.47E-07
 Optimization of the real space projectors (new method)

 maximal supplied QI-value         = 24.76
 optimisation between [QCUT,QGAM] = [ 11.64, 23.27] = [ 37.91,151.63] Ry 
 Optimized for a Real-space Cutoff    1.14 Angstroem

   l    n(q)    QCUT    max X(q) W(low)/X(q) W(high)/X(q)  e(spline) 
   0      8    11.635    20.381    0.10E-03    0.33E-03    0.24E-06
   0      8    11.635    15.268    0.11E-03    0.35E-03    0.26E-06
   1      7    11.635     5.964    0.24E-03    0.31E-03    0.30E-06
   1      7    11.635     5.382    0.22E-03    0.25E-03    0.26E-06
 Optimization of the real space projectors (new method)

 maximal supplied QI-value         = 34.20
 optimisation between [QCUT,QGAM] = [ 11.63, 23.26] = [ 37.87,151.49] Ry 
 Optimized for a Real-space Cutoff    1.21 Angstroem

   l    n(q)    QCUT    max X(q) W(low)/X(q) W(high)/X(q)  e(spline) 
   0      8    11.629    19.460    0.17E-03    0.34E-03    0.21E-06
   0      8    11.629    12.209    0.16E-03    0.33E-03    0.21E-06
   1      8    11.629     4.655    0.18E-03    0.16E-03    0.26E-06

 ----------------------------------------------------------------------------- 
|                                                                             |
|  ADVICE TO THIS USER RUNNING 'VASP/VAMP'   (HEAR YOUR MASTER'S VOICE ...):  |
|                                                                             |
|      You enforced a specific xc-type in the INCAR file,                     |
|      a different type was found on the POTCAR file                          |
|          I HOPE YOU KNOW, WHAT YOU ARE  DOING                               |
|                                                                             |
 ----------------------------------------------------------------------------- 

  PAW_PBE Mg 13Apr2007                  :
 energy of atom  1       EATOM=  -23.0369
 kinetic energy error for atom=    0.0000 (will be added to EATOM!!)
  PAW_PBE O 08Apr2002                   :
 energy of atom  2       EATOM= -432.3788
 kinetic energy error for atom=    0.0208 (will be added to EATOM!!)
  PAW_PBE H 15Jun2001                   :
 energy of atom  3       EATOM=  -12.4884
 kinetic energy error for atom=    0.0014 (will be added to EATOM!!)
 
 
 POSCAR: Mg   O    H                             
  positions in direct lattice
  velocities in cartesian coordinates
 exchange correlation table for  LEXCH =       42
   RHO(1)=    0.500       N(1)  =     2000
   RHO(2)=  100.500       N(2)  =     4000

 VTST: version 3.2, (02/03/18)

 CHAIN: initializing optimizer
 
 OPT: Using VASP Dynamics algorithm
 CHAIN: Read ICHAIN            0
 
 POSCAR: Mg   O    H                             
  positions in direct lattice
  velocities in cartesian coordinates
 


--------------------------------------------------------------------------------------------------------


 ion  position               nearest neighbor table
   1  0.000  0.000  0.000-   7 3.19  25 3.19  19 3.19  10 3.19   4 3.19  13 3.19  44 3.19  32 3.19
                            28 3.19
   2  1.000  1.000  0.158-  33 3.08  29 3.13  44 3.14  28 3.15  32 3.15  45 3.17  20 3.17   5 3.18
                            26 3.18  14 3.19  11 3.19   8 3.20
   3  0.004  0.004  0.330-  46 2.16  27 3.16  15 3.16  12 3.21   6 3.24  21 3.24   9 3.25  45 3.52
                            29 3.52  33 3.64
   4  0.000  0.333  0.000-  22 3.19  13 3.19  19 3.19  16 3.19   1 3.19   7 3.19  40 3.19  30 3.19
                            28 3.19
   5  0.001  0.333  0.157-  28 3.12  41 3.13  30 3.13  40 3.13  31 3.17   2 3.18  14 3.18   8 3.18
                            29 3.18  17 3.18  20 3.19  23 3.20
   6  0.995  0.332  0.310-  31 3.05  29 3.06  41 3.06  24 3.13  15 3.14  21 3.18   9 3.18  18 3.23
                             3 3.24
   7  0.000  0.667  0.000-   1 3.19  10 3.19  25 3.19  16 3.19  22 3.19   4 3.19  42 3.19  32 3.19
                            30 3.19
   8  0.999  0.665  0.157-  33 3.09  42 3.13  30 3.13  32 3.14  31 3.16  26 3.17  23 3.17   5 3.18
                            17 3.19   2 3.20  11 3.20  43 3.24
   9  0.007  0.671  0.313-  43 3.09  12 3.10  31 3.12  27 3.14  33 3.15  18 3.16   6 3.18   3 3.25
                            24 3.36
  10  0.333  0.000  0.000-  16 3.19   7 3.19  19 3.19   1 3.19  22 3.19  13 3.19  32 3.19  34 3.19
                            38 3.19
  11  0.334  0.000  0.157-  33 3.12  38 3.12  34 3.12  32 3.12  39 3.16  23 3.18  14 3.18  17 3.19
                            20 3.19  35 3.19   2 3.19   8 3.20
  12  0.328  0.997  0.308-  35 3.02  33 3.04  39 3.04   9 3.10  24 3.16   3 3.21  21 3.23  15 3.27
                            18 3.31
  13  0.333  0.333  0.000-  22 3.19   4 3.19  10 3.19   1 3.19  25 3.19  16 3.19  28 3.19  36 3.19
                            34 3.19
  14  0.334  0.333  0.158-  34 3.14  28 3.14  36 3.14  35 3.14  29 3.15   5 3.18  23 3.18  11 3.18
                            17 3.18   2 3.19  26 3.19  37 3.19
  15  0.326  0.337  0.315-  29 3.11  37 3.13  18 3.14   6 3.14   3 3.16  35 3.20  12 3.27  27 3.30
                            24 3.33
  16  0.333  0.667  0.000-  10 3.19  19 3.19   7 3.19  25 3.19   4 3.19  13 3.19  38 3.19  30 3.19
                            36 3.19
  17  0.333  0.666  0.158-  39 3.10  31 3.10  36 3.15  30 3.15  38 3.16  37 3.16  20 3.18   5 3.18
                            14 3.18  11 3.19   8 3.19  26 3.20
  18  0.325  0.659  0.332-  51 2.17  15 3.14   9 3.16   6 3.23  21 3.30  12 3.31  27 3.36  31 3.59
                            37 3.61
  19  0.667  0.000  0.000-  25 3.19  16 3.19   1 3.19  10 3.19   4 3.19  22 3.19  38 3.19  44 3.19
                            40 3.19
  20  0.667  0.998  0.157-  41 3.11  44 3.12  38 3.13  40 3.14  39 3.14   2 3.17  17 3.18  26 3.18
                            11 3.19   5 3.19  23 3.21  45 3.22
  21  0.666  0.996  0.313-  45 3.07  24 3.09  39 3.12  41 3.15  27 3.16   6 3.18  12 3.23   3 3.24
                            18 3.30
  22  0.667  0.333  0.000-  13 3.19   4 3.19  10 3.19  25 3.19   7 3.19  19 3.19  34 3.19  42 3.19
                            40 3.19
  23  0.666  0.334  0.159-  41 3.08  35 3.12  34 3.16  42 3.16  40 3.16  26 3.17   8 3.17  43 3.17
                            14 3.18  11 3.18   5 3.20  20 3.21
  24  0.663  0.316  0.323-  49 2.16  21 3.09   6 3.13  12 3.16  15 3.33  35 3.34  27 3.34  43 3.35
                            41 3.36   9 3.36
  25  0.667  0.667  0.000-   1 3.19  19 3.19   7 3.19  16 3.19  22 3.19  13 3.19  36 3.19  42 3.19
                            44 3.19
  26  0.668  0.666  0.159-  37 3.15  42 3.16  45 3.17  44 3.17   8 3.17  23 3.17  36 3.17   2 3.18
                            20 3.18  14 3.19  17 3.20  43 3.21
  27  0.680  0.673  0.318-  50 2.11  61 2.19   9 3.14  43 3.15  45 3.15   3 3.16  21 3.16  37 3.26
                            15 3.30  24 3.34  18 3.36
  28  0.111  0.222  0.080-   5 3.12  14 3.14   2 3.15  44 3.19  32 3.19  40 3.19  34 3.19  36 3.19
                            30 3.19   1 3.19  13 3.19   4 3.19
  29  0.112  0.218  0.237-   6 3.06  15 3.11   2 3.13  45 3.15  14 3.15  33 3.16  35 3.17   5 3.18
                            31 3.22  41 3.23  37 3.23   3 3.52
  30  0.111  0.556  0.080-   8 3.13   5 3.13  17 3.15  32 3.19  42 3.19  38 3.19  40 3.19  36 3.19
                            28 3.19  16 3.19   7 3.19   4 3.19
  31  0.116  0.558  0.236-   6 3.05  17 3.10   9 3.12  39 3.13  37 3.16   8 3.16   5 3.17  33 3.18
                            43 3.22  29 3.22  41 3.25  18 3.59
  32  0.111  0.889  0.080-  11 3.12   8 3.14   2 3.15  28 3.19  34 3.19  44 3.19  30 3.19  42 3.19
                            38 3.19  10 3.19   1 3.19   7 3.19
  33  0.109  0.886  0.234-  12 3.04   2 3.08   8 3.09  11 3.12  45 3.13   9 3.15  29 3.16  31 3.18
                            43 3.20  39 3.21  35 3.24   3 3.64
  34  0.444  0.222  0.080-  11 3.12  14 3.14  23 3.16  38 3.19  40 3.19  32 3.19  42 3.19  28 3.19
                            36 3.19  22 3.19  10 3.19  13 3.19
  35  0.447  0.226  0.236-  12 3.02  43 3.12  23 3.12  14 3.14  41 3.16  29 3.17  37 3.18  11 3.19
                            15 3.20  33 3.24  39 3.25  24 3.34
  36  0.444  0.556  0.080-  14 3.14  17 3.15  26 3.17  42 3.19  38 3.19  44 3.19  30 3.19  28 3.19
                            34 3.19  25 3.19  13 3.19  16 3.19
  37  0.447  0.559  0.237-  15 3.13  39 3.13  26 3.15  31 3.16  17 3.16  45 3.17  35 3.18  43 3.18
                            14 3.19  29 3.23  27 3.26  18 3.61
  38  0.444  0.889  0.080-  11 3.12  20 3.13  17 3.16  40 3.19  34 3.19  44 3.19  36 3.19  30 3.19
                            32 3.19  19 3.19  16 3.19  10 3.19
  39  0.444  0.885  0.235-  12 3.04  17 3.10  21 3.12  31 3.13  37 3.13  20 3.14  11 3.16  41 3.17
                            33 3.21  45 3.21  35 3.25
  40  0.778  0.222  0.080-   5 3.13  20 3.14  23 3.16  38 3.19  34 3.19  44 3.19  28 3.19  30 3.19
                            42 3.19   4 3.19  19 3.19  22 3.19
  41  0.774  0.219  0.234-   6 3.06  23 3.08  20 3.11   5 3.13  21 3.15  43 3.16  35 3.16  39 3.17
                            45 3.20  29 3.23  31 3.25  24 3.36
  42  0.778  0.556  0.080-   8 3.13  26 3.16  23 3.16  36 3.19  44 3.19  30 3.19  32 3.19  34 3.19
                            40 3.19  25 3.19   7 3.19  22 3.19
  43  0.776  0.550  0.239-   9 3.09  35 3.12  27 3.15  41 3.16  23 3.17  37 3.18  45 3.20  33 3.20
                            26 3.21  31 3.22   8 3.24  24 3.35
  44  0.778  0.889  0.080-  20 3.12   2 3.14  26 3.17  28 3.19  40 3.19  42 3.19  32 3.19  38 3.19
                            36 3.19   1 3.19  19 3.19  25 3.19
  45  0.782  0.888  0.238-  21 3.07  33 3.13  27 3.15  29 3.15   2 3.17  26 3.17  37 3.17  43 3.20
                            41 3.20  39 3.21  20 3.22   3 3.52
  46  0.994  0.012  0.396-  53 0.98  52 0.99   3 2.16
  47  0.278  0.972  0.412-  54 0.98  55 1.00
  48  0.896  0.250  0.411-  56 0.98  57 1.00
  49  0.636  0.325  0.388-  59 0.98  58 1.01  24 2.16
  50  0.617  0.593  0.379-  60 0.98  61 1.32  27 2.11
  51  0.301  0.693  0.397-  63 0.98  62 1.00  18 2.17
  52  0.972  0.093  0.408-  46 0.99
  53  0.083  0.011  0.411-  46 0.98
  54  0.382  0.073  0.412-  47 0.98
  55  0.247  0.957  0.382-  47 1.00
  56  0.995  0.355  0.408-  48 0.98
  57  0.862  0.217  0.382-  48 1.00
  58  0.639  0.430  0.393-  49 1.01
  59  0.723  0.324  0.404-  49 0.98
  60  0.642  0.682  0.398-  50 0.98
  61  0.478  0.546  0.360-  50 1.32  27 2.19
  62  0.300  0.792  0.407-  51 1.00
  63  0.361  0.668  0.417-  51 0.98
 
  LATTYP: Found a hexagonal cell.
 ALAT       =     9.5557527542
 C/A-ratio  =     3.4141837076
  
  Lattice vectors:
  
 A1 = (   9.5557527542,   0.0000000000,   0.0000000000)
 A2 = (  -4.7778763771,   8.2755246374,   0.0000000000)
 A3 = (   0.0000000000,   0.0000000000,  32.6250953674)


Analysis of symmetry for initial positions (statically):
=====================================================================
 Subroutine PRICEL returns:
 Original cell was already a primitive cell.
 

 Routine SETGRP: Setting up the symmetry group for a 
 hexagonal supercell.


 Subroutine GETGRP returns: Found  1 space group operations
 (whereof  1 operations were pure point group operations)
 out of a pool of 24 trial point group operations.


The static configuration has the point symmetry C_1 .


Analysis of symmetry for dynamics (positions and initial velocities):
=====================================================================
 Subroutine PRICEL returns:
 Original cell was already a primitive cell.
 

 Routine SETGRP: Setting up the symmetry group for a 
 hexagonal supercell.


 Subroutine GETGRP returns: Found  1 space group operations
 (whereof  1 operations were pure point group operations)
 out of a pool of 24 trial point group operations.


The dynamic configuration has the point symmetry C_1 .


Analysis of constrained symmetry for selective dynamics:
=====================================================================
 Subroutine PRICEL returns:
 Original cell was already a primitive cell.
 

 Routine SETGRP: Setting up the symmetry group for a 
 hexagonal supercell.


 Subroutine GETGRP returns: Found  1 space group operations
 (whereof  1 operations were pure point group operations)
 out of a pool of 24 trial point group operations.


The constrained configuration has the point symmetry C_1 .


 Subroutine INISYM returns: Found  1 space group operations
 (whereof  1 operations are pure point group operations),
 and found     1 'primitive' translations

 
 
 KPOINTS: Auto                                    

Automatic generation of k-mesh.
Space group operators:
 irot       det(A)        alpha          n_x          n_y          n_z        tau_x        tau_y        tau_z
    1     1.000000     0.000000     1.000000     0.000000     0.000000     0.000000     0.000000     0.000000
 
 Subroutine IBZKPT returns following result:
 ===========================================
 
 Found      5 irreducible k-points:
 
 Following reciprocal coordinates:
            Coordinates               Weight
  0.000000  0.000000  0.000000      1.000000
  0.333333 -0.000000  0.000000      2.000000
  0.000000  0.333333  0.000000      2.000000
  0.333333  0.333333  0.000000      2.000000
 -0.333333  0.333333  0.000000      2.000000
 
 Following cartesian coordinates:
            Coordinates               Weight
  0.000000  0.000000  0.000000      1.000000
  0.034883  0.020140  0.000000      2.000000
  0.000000  0.040279  0.000000      2.000000
  0.034883  0.060419  0.000000      2.000000
 -0.034883  0.020140  0.000000      2.000000
 
 TETIRR: Found     24 inequivalent tetrahedra from       54


--------------------------------------------------------------------------------------------------------




 Dimension of arrays:
   k-points           NKPTS =      5   k-points in BZ     NKDIM =      5   number of bands    NBANDS=    102
   number of dos      NEDOS =    301   number of ions     NIONS =     63
   non local maximal  LDIM  =      5   non local SUM 2l+1 LMDIM =     13
   total plane-waves  NPLWV = ******
   max r-space proj   IRMAX =   4509   max aug-charges    IRDMAX=  21536
   dimension x,y,z NGX =    72 NGY =   72 NGZ =  250
   dimension x,y,z NGXF=   144 NGYF=  144 NGZF=  500
   support grid    NGXF=   144 NGYF=  144 NGZF=  500
   ions per type =              45   6  12
   NGX,Y,Z   is equivalent  to a cutoff of  12.53, 12.53, 12.74 a.u.
   NGXF,Y,Z  is equivalent  to a cutoff of  25.05, 25.05, 25.48 a.u.

 SYSTEM =  Mg_slab_in_a_box                        
 POSCAR =  Mg   O    H                             

 Startparameter for this run:
   NWRITE =      2    write-flag & timer
   PREC   = accura    normal or accurate (medium, high low for compatibility)
   ISTART =      0    job   : 0-new  1-cont  2-samecut
   ICHARG =      2    charge: 1-file 2-atom 10-const
   ISPIN  =      1    spin polarized calculation?
   LNONCOLLINEAR =      F non collinear calculations
   LSORBIT =      F    spin-orbit coupling
   INIWAV =      1    electr: 0-lowe 1-rand  2-diag
   LASPH  =      T    aspherical Exc in radial PAW
   METAGGA=      F    non-selfconsistent MetaGGA calc.

 Electronic Relaxation 1
   ENCUT  =  520.0 eV  38.22 Ry    6.18 a.u.  17.77 17.77 60.66*2*pi/ulx,y,z
   ENINI  =  520.0     initial cutoff
   ENAUG  =  605.4 eV  augmentation charge cutoff
   NELM   =    300;   NELMIN=  6; NELMDL=-12     # of ELM steps 
   EDIFF  = 0.5E-05   stopping-criterion for ELM
   LREAL  =      T    real-space projection
   NLSPLINE    = F    spline interpolate recip. space projectors
   LCOMPAT=      F    compatible to vasp.4.4
   GGA_COMPAT  = T    GGA compatible to vasp.4.4-vasp.4.6
   LMAXPAW     = -100 max onsite density
   LMAXMIX     =    2 max onsite mixed and CHGCAR
   VOSKOWN=      0    Vosko Wilk Nusair interpolation
   ROPT   =   -0.00025  -0.00025  -0.00025
 Ionic relaxation
   EDIFFG = 0.5E-04   stopping-criterion for IOM
   NSW    =      0    number of steps for IOM
   NBLOCK =      1;   KBLOCK =      1    inner block; outer block 
   IBRION =     -1    ionic relax: 0-MD 1-quasi-New 2-CG
   NFREE  =      0    steps in history (QN), initial steepest desc. (CG)
   ISIF   =      2    stress and relaxation
   IWAVPR =     10    prediction:  0-non 1-charg 2-wave 3-comb
   ISYM   =      2    0-nonsym 1-usesym 2-fastsym
   LCORR  =      T    Harris-Foulkes like correction to forces

   POTIM  = 0.5000    time-step for ionic-motion
   TEIN   =    0.0    initial temperature
   TEBEG  =    0.0;   TEEND  =   0.0 temperature during run
   SMASS  =  -3.00    Nose mass-parameter (am)
   estimated Nose-frequenzy (Omega)   =  0.10E-29 period in steps =****** mass=  -0.209E-26a.u.
   SCALEE = 1.0000    scale energy and forces
   NPACO  =    256;   APACO  = 16.0  distance and # of slots for P.C.
   PSTRESS=    0.0 pullay stress

  Mass of Ions in am
   POMASS =  24.30 16.00  1.00
  Ionic Valenz
   ZVAL   =   2.00  6.00  1.00
  Atomic Wigner-Seitz radii
   RWIGS  =  -1.00 -1.00 -1.00
  virtual crystal weights 
   VCA    =   1.00  1.00  1.00
   NELECT =     138.0000    total number of electrons
   NUPDOWN=      -1.0000    fix difference up-down

 DOS related values:
   EMIN   =  10.00;   EMAX   =-10.00  energy-range for DOS
   EFERMI =   0.00
   ISMEAR =    -5;   SIGMA  =   0.20  broadening in eV -4-tet -1-fermi 0-gaus

 Electronic relaxation 2 (details)
   IALGO  =     48    algorithm
   LDIAG  =      T    sub-space diagonalisation (order eigenvalues)
   LSUBROT=      F    optimize rotation matrix (better conditioning)
   TURBO    =      0    0=normal 1=particle mesh
   IRESTART =      0    0=no restart 2=restart with 2 vectors
   NREBOOT  =      0    no. of reboots
   NMIN     =      0    reboot dimension
   EREF     =   0.00    reference energy to select bands
   IMIX   =      4    mixing-type and parameters
     AMIX     =   0.40;   BMIX     =  1.00
     AMIX_MAG =   1.60;   BMIX_MAG =  1.00
     AMIN     =   0.10
     WC   =   100.;   INIMIX=   1;  MIXPRE=   1;  MAXMIX= -45

 Intra band minimization:
   WEIMIN = 0.0000     energy-eigenvalue tresh-hold
   EBREAK =  0.12E-07  absolut break condition
   DEPER  =   0.30     relativ break condition  

   TIME   =   0.40     timestep for ELM

  volume/ion in A,a.u.               =      40.95       276.36
  Fermi-wavevector in a.u.,A,eV,Ry     =   0.616828  1.165635  5.176694  0.380476
  Thomas-Fermi vector in A             =   1.674695
 
 Write flags
   LWAVE        =      F    write WAVECAR
   LDOWNSAMPLE  =      F    k-point downsampling of WAVECAR
   LCHARG       =      T    write CHGCAR
   LVTOT        =      F    write LOCPOT, total local potential
   LVHAR        =      T    write LOCPOT, Hartree potential only
   LELF         =      F    write electronic localiz. function (ELF)
   LORBIT       =      0    0 simple, 1 ext, 2 COOP (PROOUT), +10 PAW based schemes


 Dipole corrections
   LMONO  =      F    monopole corrections only (constant potential shift)
   LDIPOL =      T    correct potential (dipole corrections)
   IDIPOL =      3    1-x, 2-y, 3-z, 4-all directions 
   EPSILON=  1.0000000 bulk dielectric constant

 Exchange correlation treatment:
   GGA     =    BO    GGA type
   LEXCH   =    42    internal setting for exchange type
   VOSKOWN=      0    Vosko Wilk Nusair interpolation
   LHFCALC =     F    Hartree Fock is set to
   LHFONE  =     F    Hartree Fock one center treatment
   AEXX    =    0.0000 exact exchange contribution

 vdW DFT:
   LUSE_VDW   =     T    switch on vdW DFT
   Zab_VDW    =-.8491    correlation parameter
   PARAM1     =0.1833
   PARAM2     =0.2200
   PARAM3     =0.0000
   -- rVV10 --
   BPARAM     = 6.3000
   CPARAM     = 0.0093

 Linear response parameters
   LEPSILON=     F    determine dielectric tensor
   LRPA    =     F    only Hartree local field effects (RPA)
   LNABLA  =     F    use nabla operator in PAW spheres
   LVEL    =     F    velocity operator in full k-point grid
   LINTERFAST=   F  fast interpolation
   KINTER  =     0    interpolate to denser k-point grid
   CSHIFT  =0.1000    complex shift for real part using Kramers Kronig
   OMEGAMAX=  -1.0    maximum frequency
   DEG_THRESHOLD= 0.2000000E-02 threshold for treating states as degnerate
   RTIME   =   -0.100 relaxation time in fs
  (WPLASMAI=    0.000 imaginary part of plasma frequency in eV, 0.658/RTIME)
   DFIELD  = 0.0000000 0.0000000 0.0000000 field for delta impulse in time
 
 Orbital magnetization related:
   ORBITALMAG=     F  switch on orbital magnetization
   LCHIMAG   =     F  perturbation theory with respect to B field
   DQ        =  0.001000  dq finite difference perturbation B field
   LLRAUG    =     F  two centre corrections for induced B field



--------------------------------------------------------------------------------------------------------


 Static calculation
 charge density and potential will be updated during run
 non-spin polarized calculation
 RMM-DIIS sequential band-by-band
 perform sub-space diagonalisation
    before iterative eigenvector-optimisation
 modified Broyden-mixing scheme, WC =      100.0
 initial mixing is a Kerker type mixing with AMIX =  0.4000 and BMIX =      1.0000
 Hartree-type preconditioning will be used
 using additional bands           33
 real space projection scheme for non local part
 use partial core corrections
 calculate Harris-corrections to forces 
   (improved forces if not selfconsistent)
 use gradient corrections 
 use of overlap-Matrix (Vanderbilt PP)
 Fermi weights with tetrahedron method with Bloechl corrections


--------------------------------------------------------------------------------------------------------


  energy-cutoff  :      520.00
  volume of cell :     2579.96
      direct lattice vectors                 reciprocal lattice vectors
     9.555752754  0.000000000  0.000000000     0.104649003  0.060419130  0.000000000
    -4.777876377  8.275524637  0.000000000     0.000000000  0.120838260  0.000000000
     0.000000000  0.000000000 32.625095367     0.000000000  0.000000000  0.030651251

  length of vectors
     9.555752754  9.555752754 32.625095367     0.120838260  0.120838260  0.030651251


 
 k-points in units of 2pi/SCALE and weight: Auto                                    
   0.00000000  0.00000000  0.00000000       0.111
   0.03488300  0.02013971  0.00000000       0.222
   0.00000000  0.04027942  0.00000000       0.222
   0.03488300  0.06041913  0.00000000       0.222
  -0.03488300  0.02013971  0.00000000       0.222
 
 k-points in reciprocal lattice and weights: Auto                                    
   0.00000000  0.00000000  0.00000000       0.111
   0.33333333 -0.00000000  0.00000000       0.222
   0.00000000  0.33333333  0.00000000       0.222
   0.33333333  0.33333333  0.00000000       0.222
  -0.33333333  0.33333333  0.00000000       0.222
 
 position of ions in fractional coordinates (direct lattice) 
   0.00000000  0.00000000  0.00000000
   0.99961605  0.99981248  0.15808146
   0.00398343  0.00448541  0.32981125
   0.00000001  0.33333336  0.00000000
   0.00066109  0.33275063  0.15745348
   0.99488707  0.33192248  0.30976263
   0.00000002  0.66666672  0.00000000
   0.99896600  0.66494442  0.15747603
   0.00716093  0.67069666  0.31321970
   0.33333334  0.00000000  0.00000000
   0.33410624  0.00019713  0.15709888
   0.32835224  0.99714961  0.30829571
   0.33333335  0.33333336  0.00000000
   0.33351315  0.33315347  0.15789394
   0.32574164  0.33683986  0.31493905
   0.33333336  0.66666672  0.00000000
   0.33347133  0.66641574  0.15835915
   0.32536731  0.65938283  0.33242269
   0.66666668  0.00000000  0.00000000
   0.66672788  0.99822140  0.15731430
   0.66574905  0.99621420  0.31281710
   0.66666668  0.33333336  0.00000000
   0.66642389  0.33355964  0.15857227
   0.66266719  0.31584472  0.32257910
   0.66666670  0.66666672  0.00000000
   0.66814773  0.66624545  0.15876379
   0.68016932  0.67310899  0.31766234
   0.11111113  0.22222222  0.07982145
   0.11162185  0.21831064  0.23651331
   0.11111114  0.55555561  0.07982145
   0.11648734  0.55780002  0.23591229
   0.11111116  0.88888894  0.07982145
   0.10890632  0.88626789  0.23370403
   0.44444450  0.22222222  0.07982145
   0.44710372  0.22639188  0.23637723
   0.44444450  0.55555561  0.07982145
   0.44709128  0.55866772  0.23723701
   0.44444451  0.88888894  0.07982145
   0.44436676  0.88508600  0.23533976
   0.77777779  0.22222222  0.07982145
   0.77431466  0.21886396  0.23438686
   0.77777781  0.55555561  0.07982145
   0.77581385  0.54986867  0.23888496
   0.77777784  0.88888894  0.07982145
   0.78192703  0.88779865  0.23784953
   0.99442559  0.01174858  0.39588216
   0.27817663  0.97162336  0.41185979
   0.89621589  0.24958047  0.41138546
   0.63647992  0.32531076  0.38806094
   0.61699613  0.59335222  0.37869166
   0.30050768  0.69277426  0.39740257
   0.97184683  0.09324606  0.40805417
   0.08252145  0.01119499  0.41135560
   0.38225121  0.07329960  0.41177374
   0.24657097  0.95742868  0.38219150
   0.99465123  0.35523092  0.40832636
   0.86218310  0.21723293  0.38222385
   0.63864653  0.43032683  0.39281531
   0.72306799  0.32378936  0.40405897
   0.64176521  0.68208886  0.39784982
   0.47809875  0.54588321  0.36015113
   0.30000880  0.79174249  0.40690579
   0.36059634  0.66792473  0.41747824
 
 position of ions in cartesian coordinates  (Angst):
   0.00000000  0.00000000  0.00000000
   4.77510336  8.27397285  5.15742259
   0.01663393  0.03711912 10.76012359
  -1.59262550  2.75850844  0.00000000
  -1.58352416  2.75368606  5.13693488
   7.92101024  2.74683270 10.10603540
  -3.18525100  5.51701689  0.00000000
   6.36884982  5.50276393  5.13767042
  -3.13607761  5.55036674 10.21882261
   3.18525100  0.00000000  0.00000000
   3.19169474  0.00163135  5.12536587
  -1.62660472  8.25193616 10.05817708
   1.59262550  2.75850844  0.00000000
   1.59520305  2.75701978  5.15130497
   1.50332731  2.78752657 10.27491659
  -0.00000001  5.51701689  0.00000000
   0.00251758  5.51493986  5.16648238
  -0.04132007  5.45673885 10.84532211
   6.37050200  0.00000000  0.00000000
   1.60170833  8.26080582  5.13239403
   1.60194507  8.24419514 10.20568786
   4.77787638  2.75850844  0.00000000
   4.77447521  2.76038099  5.17343545
   4.82321678  2.61378074 10.52417401
   3.18525100  5.51701689  0.00000000
   3.20141608  5.51353063  5.17968363
   3.28349836  5.57032999 10.36376411
   0.00000017  1.83900547  2.60418248
   0.02356953  1.80663507  7.71626938
  -1.59262550  4.59751415  2.60418248
  -1.55197531  4.61608779  7.69666088
  -3.18525076  7.35602236  2.60418248
  -3.19379654  7.33433175  7.62461616
   3.18525147  1.83900547  2.60418248
   3.19074026  1.87351154  7.71182957
   1.59262574  4.59751415  2.60418248
   1.60304842  4.62326846  7.73988000
   0.00000039  7.35602236  2.60418248
   0.01742736  7.32455099  7.67798209
   6.37050200  1.83900547  2.60418248
   6.35345448  1.81121413  7.64689363
   4.77787638  4.59751415  2.60418248
   4.78628078  4.55045169  7.79364473
   3.18525124  7.35602236  2.60418248
   3.23010921  7.34699961  7.75986355
   9.44635178  0.09722569 12.91569337
  -1.98410923  8.04069307 13.43696500
   7.37155282  2.06540936 13.42149001
   4.52775010  2.69211724 12.66052514
   3.06089892  4.91030091 12.35485168
  -0.43841272  5.73307048 12.96529678
   8.84120988  0.77166003 13.31280625
   0.73506633  0.09264440 13.42051553
   3.30248165  0.60659263 13.43415747
  -2.21830461  7.92322461 12.46903412
   7.80739181  2.93972219 13.32168639
   7.20089639  1.79771650 12.47008948
   4.04669996  3.56118027 12.81563679
   5.36243339  2.67952681 13.18246254
   2.87361341  5.64464316 12.97988823
   1.96043097  4.51746998 11.74996510
  -0.91603777  6.55208446 13.27534026
   0.25450765  5.52742758 13.62026752
 


--------------------------------------------------------------------------------------------------------


 k-point  1 :   0.0000 0.0000 0.0000  plane waves:   69403
 k-point  2 :   0.3333-0.0000 0.0000  plane waves:   69509
 k-point  3 :   0.0000 0.3333 0.0000  plane waves:   69509
 k-point  4 :   0.3333 0.3333 0.0000  plane waves:   69474
 k-point  5 :  -0.3333 0.3333 0.0000  plane waves:   69509

 maximum and minimum number of plane-waves per node :      2924     2870

 maximum number of plane-waves:     69509
 maximum index in each direction: 
   IXMAX=   18   IYMAX=   17   IZMAX=   60
   IXMIN=  -18   IYMIN=  -18   IZMIN=  -60


 real space projection operators:
  total allocation   :      22585.69 KBytes
  max/ min on nodes  :       1306.96        523.05


 parallel 3D FFT for wavefunctions:
    minimum data exchange during FFTs selected (reduces bandwidth)
 parallel 3D FFT for charge:
    minimum data exchange during FFTs selected (reduces bandwidth)


 total amount of memory used by VASP MPI-rank0    62213. kBytes
=======================================================================

   base      :      30000. kBytes
   nonlr-proj:       6310. kBytes
   fftplans  :       6459. kBytes
   grid      :      11407. kBytes
   one-center:         24. kBytes
   wavefun   :       8013. kBytes
 
     INWAV:  cpu time    0.0001: real time    0.0002
 Broyden mixing: mesh for mixing (old mesh)
   NGX = 35   NGY = 35   NGZ =121
  (NGX  =144   NGY  =144   NGZ  =500)
  gives a total of 148225 points

 initial charge density was supplied:
 charge density of overlapping atoms calculated
 number of electron     138.0000000 magnetization 
 keeping initial charge density in first step


--------------------------------------------------------------------------------------------------------


 Maximum index for non-local projection operator          296
 Maximum index for augmentation-charges          837 (set IRDMAX)


--------------------------------------------------------------------------------------------------------


 First call to EWALD:  gamma=   0.129
 Maximum number of real-space cells 4x 4x 1
 Maximum number of reciprocal cells 2x 2x 6

    FEWALD:  cpu time    0.0024: real time    0.0024


--------------------------------------- Iteration      1(   1)  ---------------------------------------


vdW kernel read from vdw_kernel.bindat
  0.0000  0.2424  0.5071  0.7962  1.1119  1.4567  1.8333  2.2446  2.6937  3.1842
  3.7199  4.3049  4.9438  5.6415  6.4036  7.2358  8.1446  9.1372 10.2212 11.4050
 12.6979 14.1099 15.6519 17.3360 19.1751 21.1837 23.3773 25.7729 28.3892 31.2465
 34.3669 37.7748 41.4965 45.5611 50.0000
 
    POTLOK:  cpu time    5.3385: real time    5.4796
    SETDIJ:  cpu time    0.1366: real time    0.1367
    EDDIAG:  cpu time    0.4845: real time    0.4855
  RMM-DIIS:  cpu time    1.0480: real time    1.0486
    ORTHCH:  cpu time    0.0711: real time    0.0711
 BZINTS: Fermi energy:  9.571268;138.000000 electrons
         Band energy: 211.574656;  BLOECHL correction: -0.181041
       DOS:  cpu time    0.0029: real time    0.0029
    --------------------------------------------
      LOOP:  cpu time    7.0816: real time    7.2243

 eigenvalue-minimisations  :   510
 total energy-change (2. order) : 0.1241144E+04  (-0.2793113E+04)
 number of electron     138.0000000 magnetization 
 augmentation part      138.0000000 magnetization 

 DIPCOR: dipole corrections for dipol
 direction  3 min pos   355,
 dipolmoment           0.000000      0.000000     -0.000396 electrons x Angstroem
 Tr[quadrupol]     -1889.152312

 energy correction for charged system         0.000000 eV
 dipol+quadrupol energy correction           -0.000000 eV
 added-field ion interaction          0.004202 eV  (added to PSCEN)


 Free energy of the ion-electron system (eV)
  ---------------------------------------------------
  alpha Z        PSCENC =        63.16526479
  Ewald energy   TEWEN  =     13075.69536986
  -Hartree energ DENC   =    -16302.57306379
  -exchange      EXHF   =         0.00000000
  -V(xc)+E(xc)   XCENC  =     -2050.85114256
  PAW double counting   =      5135.15659847    -2719.01140655
  entropy T*S    EENTRO =         0.00000000
  eigenvalues    EBANDS =       211.57465600
  atomic energy  EATOM  =      3827.98814510
  Solvation  Ediel_sol  =         0.00000000
  ---------------------------------------------------
  free energy    TOTEN  =      1241.14442132 eV

  energy without entropy =     1241.14442132  energy(sigma->0) =     1241.14442132


--------------------------------------------------------------------------------------------------------




--------------------------------------- Iteration      1(   2)  ---------------------------------------


    EDDIAG:  cpu time    0.4880: real time    0.5121
  RMM-DIIS:  cpu time    1.0542: real time    1.0548
    ORTHCH:  cpu time    0.0718: real time    0.0718
 BZINTS: Fermi energy:  2.130150;138.000000 electrons
         Band energy:-484.705874;  BLOECHL correction: -0.291470
       DOS:  cpu time    0.0033: real time    0.0033
    --------------------------------------------
      LOOP:  cpu time    1.6173: real time    1.6420

 eigenvalue-minimisations  :   510
 total energy-change (2. order) :-0.6962805E+03  (-0.7559219E+03)
 number of electron     138.0000000 magnetization 
 augmentation part      138.0000000 magnetization 

 DIPCOR: dipole corrections for dipol
 direction  3 min pos   355,
 dipolmoment           0.000000      0.000000     -0.000396 electrons x Angstroem
 Tr[quadrupol]     -1889.152312

 energy correction for charged system         0.000000 eV
 dipol+quadrupol energy correction           -0.000000 eV
 added-field ion interaction          0.004202 eV  (added to PSCEN)


 Free energy of the ion-electron system (eV)
  ---------------------------------------------------
  alpha Z        PSCENC =        63.16526479
  Ewald energy   TEWEN  =     13075.69536986
  -Hartree energ DENC   =    -16302.57306379
  -exchange      EXHF   =         0.00000000
  -V(xc)+E(xc)   XCENC  =     -2050.85114256
  PAW double counting   =      5135.15659847    -2719.01140655
  entropy T*S    EENTRO =         0.00000000
  eigenvalues    EBANDS =      -484.70587397
  atomic energy  EATOM  =      3827.98814510
  Solvation  Ediel_sol  =         0.00000000
  ---------------------------------------------------
  free energy    TOTEN  =       544.86389136 eV

  energy without entropy =      544.86389136  energy(sigma->0) =      544.86389136


--------------------------------------------------------------------------------------------------------




--------------------------------------- Iteration      1(   3)  ---------------------------------------


    EDDIAG:  cpu time    0.4885: real time    0.5150
  RMM-DIIS:  cpu time    1.0502: real time    1.0508
    ORTHCH:  cpu time    0.0715: real time    0.0716
 BZINTS: Fermi energy:  0.388022;138.000000 electrons
         Band energy:-719.281194;  BLOECHL correction: -0.461597
       DOS:  cpu time    0.0033: real time    0.0033
    --------------------------------------------
      LOOP:  cpu time    1.6135: real time    1.6407

 eigenvalue-minimisations  :   510
 total energy-change (2. order) :-0.2345753E+03  (-0.2989765E+03)
 number of electron     138.0000000 magnetization 
 augmentation part      138.0000000 magnetization 

 DIPCOR: dipole corrections for dipol
 direction  3 min pos   355,
 dipolmoment           0.000000      0.000000     -0.000396 electrons x Angstroem
 Tr[quadrupol]     -1889.152312

 energy correction for charged system         0.000000 eV
 dipol+quadrupol energy correction           -0.000000 eV
 added-field ion interaction          0.004202 eV  (added to PSCEN)


 Free energy of the ion-electron system (eV)
  ---------------------------------------------------
  alpha Z        PSCENC =        63.16526479
  Ewald energy   TEWEN  =     13075.69536986
  -Hartree energ DENC   =    -16302.57306379
  -exchange      EXHF   =         0.00000000
  -V(xc)+E(xc)   XCENC  =     -2050.85114256
  PAW double counting   =      5135.15659847    -2719.01140655
  entropy T*S    EENTRO =         0.00000000
  eigenvalues    EBANDS =      -719.28119363
  atomic energy  EATOM  =      3827.98814510
  Solvation  Ediel_sol  =         0.00000000
  ---------------------------------------------------
  free energy    TOTEN  =       310.28857169 eV

  energy without entropy =      310.28857169  energy(sigma->0) =      310.28857169


--------------------------------------------------------------------------------------------------------




--------------------------------------- Iteration      1(   4)  ---------------------------------------


    EDDIAG:  cpu time    0.4883: real time    0.5148
  RMM-DIIS:  cpu time    1.0552: real time    1.0557
    ORTHCH:  cpu time    0.0715: real time    0.0715
 BZINTS: Fermi energy: -0.748534;138.000000 electrons
         Band energy:-891.582054;  BLOECHL correction: -0.059947
       DOS:  cpu time    0.0029: real time    0.0029
    --------------------------------------------
      LOOP:  cpu time    1.6179: real time    1.6448

 eigenvalue-minimisations  :   510
 total energy-change (2. order) :-0.1723009E+03  (-0.1486843E+03)
 number of electron     138.0000000 magnetization 
 augmentation part      138.0000000 magnetization 

 DIPCOR: dipole corrections for dipol
 direction  3 min pos   355,
 dipolmoment           0.000000      0.000000     -0.000396 electrons x Angstroem
 Tr[quadrupol]     -1889.152312

 energy correction for charged system         0.000000 eV
 dipol+quadrupol energy correction           -0.000000 eV
 added-field ion interaction          0.004202 eV  (added to PSCEN)


 Free energy of the ion-electron system (eV)
  ---------------------------------------------------
  alpha Z        PSCENC =        63.16526479
  Ewald energy   TEWEN  =     13075.69536986
  -Hartree energ DENC   =    -16302.57306379
  -exchange      EXHF   =         0.00000000
  -V(xc)+E(xc)   XCENC  =     -2050.85114256
  PAW double counting   =      5135.15659847    -2719.01140655
  entropy T*S    EENTRO =         0.00000000
  eigenvalues    EBANDS =      -891.58205399
  atomic energy  EATOM  =      3827.98814510
  Solvation  Ediel_sol  =         0.00000000
  ---------------------------------------------------
  free energy    TOTEN  =       137.98771133 eV

  energy without entropy =      137.98771133  energy(sigma->0) =      137.98771133


--------------------------------------------------------------------------------------------------------




--------------------------------------- Iteration      1(   5)  ---------------------------------------


    EDDIAG:  cpu time    0.4911: real time    0.5178
  RMM-DIIS:  cpu time    1.0496: real time    1.0502
    ORTHCH:  cpu time    0.0715: real time    0.0715
 BZINTS: Fermi energy: -1.275026;138.000000 electrons
         Band energy:***********;  BLOECHL correction: -0.212799
       DOS:  cpu time    0.0031: real time    0.0031
    --------------------------------------------
      LOOP:  cpu time    1.6154: real time    1.6427

 eigenvalue-minimisations  :   510
 total energy-change (2. order) :-0.1164380E+03  (-0.9330300E+02)
 number of electron     138.0000000 magnetization 
 augmentation part      138.0000000 magnetization 

 DIPCOR: dipole corrections for dipol
 direction  3 min pos   355,
 dipolmoment           0.000000      0.000000     -0.000396 electrons x Angstroem
 Tr[quadrupol]     -1889.152312

 energy correction for charged system         0.000000 eV
 dipol+quadrupol energy correction           -0.000000 eV
 added-field ion interaction          0.004202 eV  (added to PSCEN)


 Free energy of the ion-electron system (eV)
  ---------------------------------------------------
  alpha Z        PSCENC =        63.16526479
  Ewald energy   TEWEN  =     13075.69536986
  -Hartree energ DENC   =    -16302.57306379
  -exchange      EXHF   =         0.00000000
  -V(xc)+E(xc)   XCENC  =     -2050.85114256
  PAW double counting   =      5135.15659847    -2719.01140655
  entropy T*S    EENTRO =         0.00000000
  eigenvalues    EBANDS =     -1008.02002489
  atomic energy  EATOM  =      3827.98814510
  Solvation  Ediel_sol  =         0.00000000
  ---------------------------------------------------
  free energy    TOTEN  =        21.54974044 eV

  energy without entropy =       21.54974044  energy(sigma->0) =       21.54974044


--------------------------------------------------------------------------------------------------------




--------------------------------------- Iteration      1(   6)  ---------------------------------------


    EDDIAG:  cpu time    0.5017: real time    0.5195
  RMM-DIIS:  cpu time    1.0635: real time    1.0638
    ORTHCH:  cpu time    0.0712: real time    0.0713
 BZINTS: Fermi energy: -1.362594;138.000000 electrons
         Band energy:***********;  BLOECHL correction: -0.061501
       DOS:  cpu time    0.0030: real time    0.0030
    --------------------------------------------
      LOOP:  cpu time    1.6394: real time    1.6576

 eigenvalue-minimisations  :   510
 total energy-change (2. order) :-0.6311427E+02  (-0.4801602E+02)
 number of electron     138.0000000 magnetization 
 augmentation part      138.0000000 magnetization 

 DIPCOR: dipole corrections for dipol
 direction  3 min pos   355,
 dipolmoment           0.000000      0.000000     -0.000396 electrons x Angstroem
 Tr[quadrupol]     -1889.152312

 energy correction for charged system         0.000000 eV
 dipol+quadrupol energy correction           -0.000000 eV
 added-field ion interaction          0.004202 eV  (added to PSCEN)


 Free energy of the ion-electron system (eV)
  ---------------------------------------------------
  alpha Z        PSCENC =        63.16526479
  Ewald energy   TEWEN  =     13075.69536986
  -Hartree energ DENC   =    -16302.57306379
  -exchange      EXHF   =         0.00000000
  -V(xc)+E(xc)   XCENC  =     -2050.85114256
  PAW double counting   =      5135.15659847    -2719.01140655
  entropy T*S    EENTRO =         0.00000000
  eigenvalues    EBANDS =     -1071.13429947
  atomic energy  EATOM  =      3827.98814510
  Solvation  Ediel_sol  =         0.00000000
  ---------------------------------------------------
  free energy    TOTEN  =       -41.56453415 eV

  energy without entropy =      -41.56453415  energy(sigma->0) =      -41.56453415


--------------------------------------------------------------------------------------------------------




--------------------------------------- Iteration      1(   7)  ---------------------------------------


    EDDIAG:  cpu time    0.4893: real time    0.5161
  RMM-DIIS:  cpu time    1.0515: real time    1.0520
    ORTHCH:  cpu time    0.0717: real time    0.0717
 BZINTS: Fermi energy: -1.418165;138.000000 electrons
         Band energy:***********;  BLOECHL correction: -0.078056
       DOS:  cpu time    0.0029: real time    0.0029
    --------------------------------------------
      LOOP:  cpu time    1.6155: real time    1.6427

 eigenvalue-minimisations  :   510
 total energy-change (2. order) :-0.2575352E+02  (-0.1970327E+02)
 number of electron     138.0000000 magnetization 
 augmentation part      138.0000000 magnetization 

 DIPCOR: dipole corrections for dipol
 direction  3 min pos   355,
 dipolmoment           0.000000      0.000000     -0.000396 electrons x Angstroem
 Tr[quadrupol]     -1889.152312

 energy correction for charged system         0.000000 eV
 dipol+quadrupol energy correction           -0.000000 eV
 added-field ion interaction          0.004202 eV  (added to PSCEN)


 Free energy of the ion-electron system (eV)
  ---------------------------------------------------
  alpha Z        PSCENC =        63.16526479
  Ewald energy   TEWEN  =     13075.69536986
  -Hartree energ DENC   =    -16302.57306379
  -exchange      EXHF   =         0.00000000
  -V(xc)+E(xc)   XCENC  =     -2050.85114256
  PAW double counting   =      5135.15659847    -2719.01140655
  entropy T*S    EENTRO =         0.00000000
  eigenvalues    EBANDS =     -1096.88781672
  atomic energy  EATOM  =      3827.98814510
  Solvation  Ediel_sol  =         0.00000000
  ---------------------------------------------------
  free energy    TOTEN  =       -67.31805140 eV

  energy without entropy =      -67.31805140  energy(sigma->0) =      -67.31805140


--------------------------------------------------------------------------------------------------------




--------------------------------------- Iteration      1(   8)  ---------------------------------------


    EDDIAG:  cpu time    0.4951: real time    0.5110
  RMM-DIIS:  cpu time    1.0517: real time    1.0521
    ORTHCH:  cpu time    0.0713: real time    0.0714
 BZINTS: Fermi energy: -1.452175;138.000000 electrons
         Band energy:***********;  BLOECHL correction: -0.077300
       DOS:  cpu time    0.0028: real time    0.0028
    --------------------------------------------
      LOOP:  cpu time    1.6209: real time    1.6373

 eigenvalue-minimisations  :   510
 total energy-change (2. order) :-0.7398598E+01  (-0.6106378E+01)
 number of electron     138.0000000 magnetization 
 augmentation part      138.0000000 magnetization 

 DIPCOR: dipole corrections for dipol
 direction  3 min pos   355,
 dipolmoment           0.000000      0.000000     -0.000396 electrons x Angstroem
 Tr[quadrupol]     -1889.152312

 energy correction for charged system         0.000000 eV
 dipol+quadrupol energy correction           -0.000000 eV
 added-field ion interaction          0.004202 eV  (added to PSCEN)


 Free energy of the ion-electron system (eV)
  ---------------------------------------------------
  alpha Z        PSCENC =        63.16526479
  Ewald energy   TEWEN  =     13075.69536986
  -Hartree energ DENC   =    -16302.57306379
  -exchange      EXHF   =         0.00000000
  -V(xc)+E(xc)   XCENC  =     -2050.85114256
  PAW double counting   =      5135.15659847    -2719.01140655
  entropy T*S    EENTRO =         0.00000000
  eigenvalues    EBANDS =     -1104.28641455
  atomic energy  EATOM  =      3827.98814510
  Solvation  Ediel_sol  =         0.00000000
  ---------------------------------------------------
  free energy    TOTEN  =       -74.71664923 eV

  energy without entropy =      -74.71664923  energy(sigma->0) =      -74.71664923


--------------------------------------------------------------------------------------------------------




--------------------------------------- Iteration      1(   9)  ---------------------------------------


    EDDIAG:  cpu time    0.4872: real time    0.5139
  RMM-DIIS:  cpu time    2.8244: real time    2.8290
    ORTHCH:  cpu time    0.0712: real time    0.0712
 BZINTS: Fermi energy: -1.488838;138.000000 electrons
         Band energy:***********;  BLOECHL correction: -0.071710
       DOS:  cpu time    0.0030: real time    0.0030
    --------------------------------------------
      LOOP:  cpu time    3.3858: real time    3.4171

 eigenvalue-minimisations  :  1543
 total energy-change (2. order) :-0.2858048E+01  (-0.2702276E+01)
 number of electron     138.0000000 magnetization 
 augmentation part      138.0000000 magnetization 

 DIPCOR: dipole corrections for dipol
 direction  3 min pos   355,
 dipolmoment           0.000000      0.000000     -0.000396 electrons x Angstroem
 Tr[quadrupol]     -1889.152312

 energy correction for charged system         0.000000 eV
 dipol+quadrupol energy correction           -0.000000 eV
 added-field ion interaction          0.004202 eV  (added to PSCEN)


 Free energy of the ion-electron system (eV)
  ---------------------------------------------------
  alpha Z        PSCENC =        63.16526479
  Ewald energy   TEWEN  =     13075.69536986
  -Hartree energ DENC   =    -16302.57306379
  -exchange      EXHF   =         0.00000000
  -V(xc)+E(xc)   XCENC  =     -2050.85114256
  PAW double counting   =      5135.15659847    -2719.01140655
  entropy T*S    EENTRO =         0.00000000
  eigenvalues    EBANDS =     -1107.14446299
  atomic energy  EATOM  =      3827.98814510
  Solvation  Ediel_sol  =         0.00000000
  ---------------------------------------------------
  free energy    TOTEN  =       -77.57469767 eV

  energy without entropy =      -77.57469767  energy(sigma->0) =      -77.57469767


--------------------------------------------------------------------------------------------------------




--------------------------------------- Iteration      1(  10)  ---------------------------------------


    EDDIAG:  cpu time    0.4869: real time    0.5135
  RMM-DIIS:  cpu time    3.2635: real time    3.2650
    ORTHCH:  cpu time    0.0711: real time    0.0712
 BZINTS: Fermi energy: -1.491411;138.000000 electrons
         Band energy:***********;  BLOECHL correction: -0.069807
       DOS:  cpu time    0.0031: real time    0.0031
    --------------------------------------------
      LOOP:  cpu time    3.8246: real time    3.8527

 eigenvalue-minimisations  :  1805
 total energy-change (2. order) :-0.5401650E+00  (-0.4834241E+00)
 number of electron     138.0000000 magnetization 
 augmentation part      138.0000000 magnetization 

 DIPCOR: dipole corrections for dipol
 direction  3 min pos   355,
 dipolmoment           0.000000      0.000000     -0.000396 electrons x Angstroem
 Tr[quadrupol]     -1889.152312

 energy correction for charged system         0.000000 eV
 dipol+quadrupol energy correction           -0.000000 eV
 added-field ion interaction          0.004202 eV  (added to PSCEN)


 Free energy of the ion-electron system (eV)
  ---------------------------------------------------
  alpha Z        PSCENC =        63.16526479
  Ewald energy   TEWEN  =     13075.69536986
  -Hartree energ DENC   =    -16302.57306379
  -exchange      EXHF   =         0.00000000
  -V(xc)+E(xc)   XCENC  =     -2050.85114256
  PAW double counting   =      5135.15659847    -2719.01140655
  entropy T*S    EENTRO =         0.00000000
  eigenvalues    EBANDS =     -1107.68462800
  atomic energy  EATOM  =      3827.98814510
  Solvation  Ediel_sol  =         0.00000000
  ---------------------------------------------------
  free energy    TOTEN  =       -78.11486267 eV

  energy without entropy =      -78.11486267  energy(sigma->0) =      -78.11486267


--------------------------------------------------------------------------------------------------------




--------------------------------------- Iteration      1(  11)  ---------------------------------------


    EDDIAG:  cpu time    0.4939: real time    0.5150
  RMM-DIIS:  cpu time    3.1236: real time    3.1270
    ORTHCH:  cpu time    0.0755: real time    0.0756
 BZINTS: Fermi energy: -1.492196;138.000000 electrons
         Band energy:***********;  BLOECHL correction: -0.069203
       DOS:  cpu time    0.0030: real time    0.0030
    --------------------------------------------
      LOOP:  cpu time    3.6960: real time    3.7206

 eigenvalue-minimisations  :  1728
 total energy-change (2. order) :-0.2265712E-01  (-0.3106894E-01)
 number of electron     138.0000000 magnetization 
 augmentation part      138.0000000 magnetization 

 DIPCOR: dipole corrections for dipol
 direction  3 min pos   355,
 dipolmoment           0.000000      0.000000     -0.000396 electrons x Angstroem
 Tr[quadrupol]     -1889.152312

 energy correction for charged system         0.000000 eV
 dipol+quadrupol energy correction           -0.000000 eV
 added-field ion interaction          0.004202 eV  (added to PSCEN)


 Free energy of the ion-electron system (eV)
  ---------------------------------------------------
  alpha Z        PSCENC =        63.16526479
  Ewald energy   TEWEN  =     13075.69536986
  -Hartree energ DENC   =    -16302.57306379
  -exchange      EXHF   =         0.00000000
  -V(xc)+E(xc)   XCENC  =     -2050.85114256
  PAW double counting   =      5135.15659847    -2719.01140655
  entropy T*S    EENTRO =         0.00000000
  eigenvalues    EBANDS =     -1107.70728512
  atomic energy  EATOM  =      3827.98814510
  Solvation  Ediel_sol  =         0.00000000
  ---------------------------------------------------
  free energy    TOTEN  =       -78.13751980 eV

  energy without entropy =      -78.13751980  energy(sigma->0) =      -78.13751980


--------------------------------------------------------------------------------------------------------




--------------------------------------- Iteration      1(  12)  ---------------------------------------


    EDDIAG:  cpu time    0.4889: real time    0.5140
  RMM-DIIS:  cpu time    3.2443: real time    3.2462
    ORTHCH:  cpu time    0.0715: real time    0.0715
 BZINTS: Fermi energy: -1.492260;138.000000 electrons
         Band energy:***********;  BLOECHL correction: -0.069176
       DOS:  cpu time    0.0030: real time    0.0030
    CHARGE:  cpu time    0.1287: real time    0.1288
    MIXING:  cpu time    0.0036: real time    0.0037
    --------------------------------------------
      LOOP:  cpu time    3.9401: real time    3.9673

 eigenvalue-minimisations  :  1787
 total energy-change (2. order) :-0.4619418E-02  (-0.5285082E-02)
 number of electron     137.9999998 magnetization 
 augmentation part        5.2304462 magnetization 

 DIPCOR: dipole corrections for dipol
 direction  3 min pos   355,
 dipolmoment           0.000000      0.000000     -0.000396 electrons x Angstroem
 Tr[quadrupol]     -1889.152312

 energy correction for charged system         0.000000 eV
 dipol+quadrupol energy correction           -0.000000 eV
 added-field ion interaction          0.004202 eV  (added to PSCEN)


 Broyden mixing:
  rms(total) = 0.19784E+01    rms(broyden)= 0.19773E+01
  rms(prec ) = 0.20714E+01
  weight for this iteration     100.00

 Free energy of the ion-electron system (eV)
  ---------------------------------------------------
  alpha Z        PSCENC =        63.16526479
  Ewald energy   TEWEN  =     13075.69536986
  -Hartree energ DENC   =    -16302.57306379
  -exchange      EXHF   =         0.00000000
  -V(xc)+E(xc)   XCENC  =     -2050.85114256
  PAW double counting   =      5135.15659847    -2719.01140655
  entropy T*S    EENTRO =         0.00000000
  eigenvalues    EBANDS =     -1107.71190454
  atomic energy  EATOM  =      3827.98814510
  Solvation  Ediel_sol  =         0.00000000
  ---------------------------------------------------
  free energy    TOTEN  =       -78.14213921 eV

  energy without entropy =      -78.14213921  energy(sigma->0) =      -78.14213921


--------------------------------------------------------------------------------------------------------




--------------------------------------- Iteration      1(  13)  ---------------------------------------


    POTLOK:  cpu time    5.0969: real time    5.1242
    SETDIJ:  cpu time    0.1345: real time    0.1345
    EDDIAG:  cpu time    0.4788: real time    0.4812
  RMM-DIIS:  cpu time    2.5821: real time    2.5835
    ORTHCH:  cpu time    0.0708: real time    0.0708
 BZINTS: Fermi energy: -1.093588;138.000000 electrons
         Band energy:-921.478122;  BLOECHL correction: -0.161598
       DOS:  cpu time    0.0030: real time    0.0030
    CHARGE:  cpu time    0.1269: real time    0.1269
    MIXING:  cpu time    0.0036: real time    0.0036
    --------------------------------------------
      LOOP:  cpu time    8.4966: real time    8.5278

 eigenvalue-minimisations  :  1410
 total energy-change (2. order) : 0.8825615E+01  (-0.6131252E+01)
 number of electron     137.9999998 magnetization 
 augmentation part        4.4032933 magnetization 

 DIPCOR: dipole corrections for dipol
 direction  3 min pos   360,
 dipolmoment           0.000000      0.000000      0.533297 electrons x Angstroem
 Tr[quadrupol]     -1900.969367

 energy correction for charged system         0.000000 eV
 dipol+quadrupol energy correction           -0.009974 eV
 added-field ion interaction         -3.969844 eV  (added to PSCEN)


 Broyden mixing:
  rms(total) = 0.81526E+00    rms(broyden)= 0.81464E+00
  rms(prec ) = 0.10735E+01
  weight for this iteration     100.00

 eigenvalues of (default mixing * dielectric matrix)
  average eigenvalue GAMMA=   0.8953
  0.8953

 Free energy of the ion-electron system (eV)
  ---------------------------------------------------
  alpha Z        PSCENC =        59.18124576
  Ewald energy   TEWEN  =     13075.69536986
  -Hartree energ DENC   =    -16483.18285837
  -exchange      EXHF   =         0.00000000
  -V(xc)+E(xc)   XCENC  =     -2041.13486251
  PAW double counting   =      5557.67746211    -3144.06290440
  entropy T*S    EENTRO =         0.00000000
  eigenvalues    EBANDS =      -921.47812173
  atomic energy  EATOM  =      3827.98814510
  Solvation  Ediel_sol  =         0.00000000
  ---------------------------------------------------
  free energy    TOTEN  =       -69.31652417 eV

  energy without entropy =      -69.31652417  energy(sigma->0) =      -69.31652417


--------------------------------------------------------------------------------------------------------




--------------------------------------- Iteration      1(  14)  ---------------------------------------


    POTLOK:  cpu time    5.0766: real time    5.1256
    SETDIJ:  cpu time    0.1323: real time    0.1582
    EDDIAG:  cpu time    0.5716: real time    0.5738
  RMM-DIIS:  cpu time    3.2161: real time    3.2230
    ORTHCH:  cpu time    0.0715: real time    0.0715
 BZINTS: Fermi energy: -0.790668;138.000000 electrons
         Band energy:***********;  BLOECHL correction: -0.012872
       DOS:  cpu time    0.0028: real time    0.0028
    CHARGE:  cpu time    0.1235: real time    0.1236
    MIXING:  cpu time    0.0035: real time    0.0035
    --------------------------------------------
      LOOP:  cpu time    9.1978: real time    9.2820

 eigenvalue-minimisations  :  1714
 total energy-change (2. order) :-0.2852810E+02  (-0.1954994E+01)
 number of electron     137.9999999 magnetization 
 augmentation part        4.4676592 magnetization 

 DIPCOR: dipole corrections for dipol
 direction  3 min pos   374,
 dipolmoment           0.000000      0.000000     -2.227317 electrons x Angstroem
 Tr[quadrupol]     -1887.207472

 energy correction for charged system         0.000000 eV
 dipol+quadrupol energy correction           -0.173973 eV
 added-field ion interaction         -3.113439 eV  (added to PSCEN)


 Broyden mixing:
  rms(total) = 0.11161E+01    rms(broyden)= 0.11160E+01
  rms(prec ) = 0.33044E+01
  weight for this iteration     100.00

 eigenvalues of (default mixing * dielectric matrix)
  average eigenvalue GAMMA=   0.7028
  0.9641  0.4415

 Free energy of the ion-electron system (eV)
  ---------------------------------------------------
  alpha Z        PSCENC =        59.87365028
  Ewald energy   TEWEN  =     13075.69536986
  -Hartree energ DENC   =    -16422.06462541
  -exchange      EXHF   =         0.00000000
  -V(xc)+E(xc)   XCENC  =     -2039.69430717
  PAW double counting   =      5692.78510423    -3279.12808961
  entropy T*S    EENTRO =         0.00000000
  eigenvalues    EBANDS =     -1013.29987181
  atomic energy  EATOM  =      3827.98814510
  Solvation  Ediel_sol  =         0.00000000
  ---------------------------------------------------
  free energy    TOTEN  =       -97.84462453 eV

  energy without entropy =      -97.84462453  energy(sigma->0) =      -97.84462453


--------------------------------------------------------------------------------------------------------




--------------------------------------- Iteration      1(  15)  ---------------------------------------


    POTLOK:  cpu time    4.9149: real time    4.9493
    SETDIJ:  cpu time    0.1342: real time    0.1344
    EDDIAG:  cpu time    0.4787: real time    0.4807
  RMM-DIIS:  cpu time    2.6776: real time    2.6867
    ORTHCH:  cpu time    0.0710: real time    0.0710
 BZINTS: Fermi energy: -1.116394;138.000000 electrons
         Band energy:-924.398330;  BLOECHL correction: -0.062332
       DOS:  cpu time    0.0029: real time    0.0029
    CHARGE:  cpu time    0.1261: real time    0.1263
    MIXING:  cpu time    0.0036: real time    0.0036
    --------------------------------------------
      LOOP:  cpu time    8.4089: real time    8.4548

 eigenvalue-minimisations  :  1460
 total energy-change (2. order) : 0.3027977E+02  (-0.3410797E+00)
 number of electron     137.9999999 magnetization 
 augmentation part        4.3616370 magnetization 

 DIPCOR: dipole corrections for dipol
 direction  3 min pos   384,
 dipolmoment           0.000000      0.000000     -0.009160 electrons x Angstroem
 Tr[quadrupol]     -1898.867371

 energy correction for charged system         0.000000 eV
 dipol+quadrupol energy correction           -0.000003 eV
 added-field ion interaction         -0.070658 eV  (added to PSCEN)


 Broyden mixing:
  rms(total) = 0.48620E+00    rms(broyden)= 0.48611E+00
  rms(prec ) = 0.53115E+00
  weight for this iteration     100.00

 eigenvalues of (default mixing * dielectric matrix)
  average eigenvalue GAMMA=   0.9448
  1.5181  1.1658  0.1505

 Free energy of the ion-electron system (eV)
  ---------------------------------------------------
  alpha Z        PSCENC =        63.09040198
  Ewald energy   TEWEN  =     13075.69536986
  -Hartree energ DENC   =    -16484.42999426
  -exchange      EXHF   =         0.00000000
  -V(xc)+E(xc)   XCENC  =     -2039.17408156
  PAW double counting   =      5735.13317632    -3321.46954551
  entropy T*S    EENTRO =         0.00000000
  eigenvalues    EBANDS =      -924.39833041
  atomic energy  EATOM  =      3827.98814510
  Solvation  Ediel_sol  =         0.00000000
  ---------------------------------------------------
  free energy    TOTEN  =       -67.56485847 eV

  energy without entropy =      -67.56485847  energy(sigma->0) =      -67.56485847


--------------------------------------------------------------------------------------------------------




--------------------------------------- Iteration      1(  16)  ---------------------------------------


    POTLOK:  cpu time    4.9637: real time    4.9869
    SETDIJ:  cpu time    0.1345: real time    0.1346
    EDDIAG:  cpu time    0.4780: real time    0.4784
  RMM-DIIS:  cpu time    3.0399: real time    3.0471
    ORTHCH:  cpu time    0.0702: real time    0.0702
 BZINTS: Fermi energy: -0.816086;138.000000 electrons
         Band energy:-902.856136;  BLOECHL correction: -0.089909
       DOS:  cpu time    0.0028: real time    0.0028
    CHARGE:  cpu time    0.1288: real time    0.1290
    MIXING:  cpu time    0.0045: real time    0.0044
    --------------------------------------------
      LOOP:  cpu time    8.8224: real time    8.8535

 eigenvalue-minimisations  :  1611
 total energy-change (2. order) : 0.9394926E-01  (-0.1038561E+00)
 number of electron     137.9999999 magnetization 
 augmentation part        4.4141300 magnetization 

 DIPCOR: dipole corrections for dipol
 direction  3 min pos   389,
 dipolmoment           0.000000      0.000000     -0.163669 electrons x Angstroem
 Tr[quadrupol]     -1903.818119

 energy correction for charged system         0.000000 eV
 dipol+quadrupol energy correction           -0.000939 eV
 added-field ion interaction         -1.779283 eV  (added to PSCEN)


 Broyden mixing:
  rms(total) = 0.24435E+00    rms(broyden)= 0.24434E+00
  rms(prec ) = 0.31485E+00
  weight for this iteration     100.00

 eigenvalues of (default mixing * dielectric matrix)
  average eigenvalue GAMMA=   1.0740
  2.4318  0.8568  0.8568  0.1505

 Free energy of the ion-electron system (eV)
  ---------------------------------------------------
  alpha Z        PSCENC =        61.38084044
  Ewald energy   TEWEN  =     13075.69536986
  -Hartree energ DENC   =    -16505.61518019
  -exchange      EXHF   =         0.00000000
  -V(xc)+E(xc)   XCENC  =     -2037.85742203
  PAW double counting   =      5850.99105673    -3437.19758348
  entropy T*S    EENTRO =         0.00000000
  eigenvalues    EBANDS =      -902.85613564
  atomic energy  EATOM  =      3827.98814510
  Solvation  Ediel_sol  =         0.00000000
  ---------------------------------------------------
  free energy    TOTEN  =       -67.47090921 eV

  energy without entropy =      -67.47090921  energy(sigma->0) =      -67.47090921


--------------------------------------------------------------------------------------------------------




--------------------------------------- Iteration      1(  17)  ---------------------------------------


    POTLOK:  cpu time    4.9303: real time    4.9616
    SETDIJ:  cpu time    0.1342: real time    0.1342
    EDDIAG:  cpu time    0.4788: real time    0.4793
  RMM-DIIS:  cpu time    2.4603: real time    2.4615
    ORTHCH:  cpu time    0.0707: real time    0.0707
 BZINTS: Fermi energy: -0.760473;138.000000 electrons
         Band energy:-892.825601;  BLOECHL correction: -0.098551
       DOS:  cpu time    0.0031: real time    0.0031
    CHARGE:  cpu time    0.1270: real time    0.1271
    MIXING:  cpu time    0.0040: real time    0.0039
    --------------------------------------------
      LOOP:  cpu time    8.2083: real time    8.2414

 eigenvalue-minimisations  :  1331
 total energy-change (2. order) : 0.1431979E+00  (-0.4371088E-01)
 number of electron     137.9999999 magnetization 
 augmentation part        4.4111195 magnetization 

 DIPCOR: dipole corrections for dipol
 direction  3 min pos   388,
 dipolmoment           0.000000      0.000000     -0.392516 electrons x Angstroem
 Tr[quadrupol]     -1902.937641

 energy correction for charged system         0.000000 eV
[...]
  0.013  -0.001  -0.000   0.054   0.000   0.000  -0.003  -0.000  -0.000   0.000   0.011  -0.000  -0.000
  0.001   0.000  -0.002   0.000   0.075   0.000  -0.000  -0.004  -0.003  -0.000  -0.000   0.004   0.000
  0.000   0.000  -0.004   0.000   0.000   0.000  -0.000  -0.000  -0.000  -0.000  -0.000   0.000   0.000
 -0.003   0.000   0.000  -0.003  -0.000  -0.000   0.000   0.000  -0.000  -0.000  -0.001   0.000   0.000
 -0.000  -0.000   0.000  -0.000  -0.004  -0.000   0.000   0.000   0.000   0.000   0.000  -0.000  -0.000
  0.002   0.000   0.000  -0.000  -0.003  -0.000  -0.000   0.000   0.004   0.000   0.000  -0.000  -0.000
 -0.000  -0.000   0.004   0.000  -0.000  -0.000  -0.000   0.000   0.000   0.002   0.000   0.000  -0.000
 -0.021   0.000   0.000   0.011  -0.000  -0.000  -0.001   0.000   0.000   0.000   0.004  -0.000  -0.000
  0.000   0.000  -0.000  -0.000   0.004   0.000   0.000  -0.000  -0.000   0.000  -0.000   0.002   0.000
 -0.002  -0.000  -0.002  -0.000   0.000   0.000   0.000  -0.000  -0.000  -0.000  -0.000   0.000   0.004


------------------------ aborting loop because EDIFF is reached ----------------------------------------


    CHARGE:  cpu time    0.3613: real time    0.3614
    FORLOC:  cpu time    0.0386: real time    0.0386
    FORNL :  cpu time    0.6965: real time    0.6968
    STRESS:  cpu time    2.0967: real time    2.0971
    FORCOR:  cpu time    4.9491: real time    4.9529
    FORHAR:  cpu time    0.0731: real time    0.0732
    MIXING:  cpu time    0.0064: real time    0.0064
    OFIELD:  cpu time    0.0001: real time    0.0000

  FORCE on cell =-STRESS in cart. coord.  units (eV):
  Direction    XX          YY          ZZ          XY          YZ          ZX
  --------------------------------------------------------------------------------------
  Alpha Z    63.16106    63.16106    63.16106
  Ewald   14629.33880 14471.32331-16024.97661  -316.39610   105.04266   122.93667
  Hartree 15551.87843 15415.47656-14425.23704  -213.72202    15.92423    41.21309
  E(xc)    -445.33222  -445.30671  -443.86341    -0.36402     0.56855     0.71763
  Local  -31151.40324-30850.00864 29494.47943   515.88100   -88.61721  -132.73371
  n-local   121.41141   121.01983   113.51124     0.23375     0.81042     0.46756
  augment    44.79187    44.31789    44.76427     0.79659    -2.20555    -2.19460
  Kinetic  1180.14425  1171.69388  1177.99201    12.99487   -31.27078   -30.64481
  Fock        0.00000     0.00000     0.00000     0.00000     0.00000     0.00000
  -------------------------------------------------------------------------------------
  Total      -6.00963    -8.32282    -0.16906    -0.57595     0.25232    -0.23817
  in kB      -3.73204    -5.16855    -0.10499    -0.35767     0.15669    -0.14791
  external pressure =       -3.00 kB  Pullay stress =        0.00 kB


 VOLUME and BASIS-vectors are now :
 -----------------------------------------------------------------------------
  energy-cutoff  :      520.00
  volume of cell :     2579.96
      direct lattice vectors                 reciprocal lattice vectors
     9.555752754  0.000000000  0.000000000     0.104649003  0.060419130  0.000000000
    -4.777876377  8.275524637  0.000000000     0.000000000  0.120838260  0.000000000
     0.000000000  0.000000000 32.625095367     0.000000000  0.000000000  0.030651251

  length of vectors
     9.555752754  9.555752754 32.625095367     0.120838260  0.120838260  0.030651251


 FORCES acting on ions
    electron-ion (+dipol)            ewald-force                    non-local-force                 convergence-correction
 -----------------------------------------------------------------------------------------------
   0.336E-01 -.736E-01 0.123E+03   -.448E-02 -.434E-02 -.122E+03   -.184E-01 0.512E-01 -.802E+00   -.565E-05 -.115E-05 -.290E-03
   0.198E+00 -.152E+00 0.569E+02   -.149E+00 0.470E-01 -.569E+02   -.353E-01 0.835E-01 0.479E-01   0.945E-05 0.281E-05 -.221E-02
   -.756E+00 0.619E+00 0.138E+01   0.782E+00 -.665E+00 -.201E+01   -.218E-01 0.338E-01 0.625E+00   0.259E-04 -.320E-04 -.566E-03
   -.162E-01 -.363E-01 0.123E+03   0.224E-02 0.347E-02 -.122E+03   -.193E-01 0.189E-01 -.890E+00   -.716E-05 0.139E-04 -.298E-03
   -.655E-01 -.687E-01 0.568E+02   0.923E-01 0.633E-01 -.569E+02   -.241E-01 0.297E-02 0.744E-01   0.770E-05 0.212E-05 -.222E-02
   -.273E+01 -.306E+01 -.838E+01   0.273E+01 0.300E+01 0.800E+01   -.630E-02 0.478E-01 0.394E+00   -.219E-04 -.206E-05 -.924E-03
   0.211E-01 0.621E-01 0.123E+03   -.751E-02 -.469E-02 -.122E+03   -.550E-02 -.223E-01 -.883E+00   -.226E-04 -.332E-04 -.281E-03
   0.219E-01 0.226E+00 0.569E+02   -.311E-01 -.151E+00 -.570E+02   0.277E-02 -.477E-01 0.100E+00   0.614E-05 0.830E-05 -.222E-02
   -.177E+01 0.727E+00 -.153E+02   0.177E+01 -.646E+00 0.148E+02   0.511E-02 -.520E-01 0.543E+00   -.131E-04 0.251E-04 -.840E-03
   -.527E-01 -.562E-01 0.123E+03   -.346E-03 0.179E-02 -.122E+03   0.257E-01 0.371E-01 -.920E+00   0.124E-04 0.218E-04 -.285E-03
   -.226E-01 -.842E-01 0.571E+02   0.576E-02 0.683E-02 -.572E+02   0.785E-02 0.645E-01 0.945E-01   -.895E-05 -.626E-05 -.223E-02
   -.840E+00 0.112E+01 -.456E+01   0.646E+00 -.117E+01 0.413E+01   0.167E+00 0.473E-01 0.429E+00   -.301E-04 -.425E-05 -.933E-03
   0.233E-01 0.494E-02 0.123E+03   0.285E-02 0.128E-01 -.122E+03   -.274E-01 -.242E-01 -.868E+00   0.205E-04 0.351E-05 -.290E-03
   0.176E+00 -.204E+00 0.569E+02   -.159E+00 0.140E+00 -.570E+02   -.108E-01 0.494E-01 0.265E-01   -.149E-04 -.231E-04 -.220E-02
   0.627E+01 0.516E+01 -.123E+02   -.651E+01 -.499E+01 0.119E+02   0.241E+00 -.155E+00 0.376E+00   0.935E-05 -.549E-04 -.907E-03
   -.278E-01 0.127E-01 0.122E+03   0.108E-01 -.691E-02 -.122E+03   0.412E-02 0.130E-03 -.803E+00   0.534E-05 -.338E-05 -.292E-03
   -.142E+00 0.215E+00 0.569E+02   0.104E+00 -.170E+00 -.569E+02   0.207E-01 -.204E-01 -.542E-02   -.168E-04 0.611E-05 -.220E-02
   0.148E+01 0.291E+01 -.334E+01   -.135E+01 -.326E+01 0.279E+01   -.118E+00 0.334E+00 0.550E+00   -.674E-04 0.339E-04 -.652E-03
   0.380E-01 0.224E-01 0.123E+03   0.480E-02 -.682E-02 -.122E+03   -.321E-01 0.137E-01 -.889E+00   -.691E-05 -.565E-05 -.300E-03
   -.173E+00 0.872E-01 0.570E+02   0.157E+00 -.106E+00 -.571E+02   0.944E-02 0.121E-01 0.947E-01   -.110E-05 -.261E-05 -.222E-02
   0.975E+00 0.212E+01 -.137E+02   -.857E+00 -.211E+01 0.134E+02   -.951E-01 0.553E-02 0.325E+00   0.544E-05 0.140E-04 -.871E-03
   0.887E-01 -.417E-01 0.123E+03   -.510E-02 0.104E-01 -.122E+03   -.493E-01 0.927E-02 -.852E+00   -.133E-04 0.248E-04 -.283E-03
   -.526E-01 -.111E+00 0.570E+02   0.562E-01 0.134E+00 -.571E+02   -.368E-02 -.202E-01 0.514E-01   0.632E-05 -.360E-05 -.224E-02
   -.596E+01 0.367E+01 0.887E+01   0.629E+01 -.402E+01 -.968E+01   -.307E+00 0.347E+00 0.809E+00   0.132E-04 -.517E-05 -.682E-03
   -.228E-01 0.236E-01 0.122E+03   -.333E-02 -.561E-02 -.122E+03   0.228E-01 0.958E-02 -.813E+00   0.174E-04 -.212E-04 -.281E-03
   0.995E-01 0.143E-01 0.567E+02   -.638E-01 0.404E-01 -.567E+02   -.165E-01 -.384E-01 -.253E-01   0.121E-04 0.167E-04 -.221E-02
   -.387E+01 -.130E+02 0.110E+02   0.427E+01 0.134E+02 -.114E+02   -.435E+00 -.459E+00 0.402E+00   0.605E-04 0.364E-04 -.886E-03
   -.546E-01 -.151E-01 0.901E+02   0.331E-01 0.334E-02 -.900E+02   0.340E-01 -.223E-01 -.297E-02   0.442E-05 -.132E-04 -.183E-02
   0.176E+00 0.365E+00 0.234E+02   -.217E+00 -.303E+00 -.235E+02   0.385E-01 -.933E-01 0.117E+00   0.195E-04 -.768E-05 -.184E-02
   -.279E-01 0.226E-02 0.901E+02   0.613E-01 0.121E-01 -.900E+02   0.494E-02 -.680E-02 -.622E-02   -.226E-04 0.444E-05 -.184E-02
   -.590E+00 -.107E+00 0.231E+02   0.523E+00 0.153E+00 -.233E+02   0.787E-01 -.196E-01 0.151E+00   0.246E-04 0.174E-04 -.184E-02
   -.194E-02 0.315E-01 0.901E+02   -.738E-01 -.174E-01 -.901E+02   0.160E-01 -.790E-02 -.109E+00   -.137E-05 -.264E-05 -.181E-02
   0.497E+00 -.112E+00 0.245E+02   -.431E+00 0.637E-01 -.245E+02   -.806E-01 0.464E-01 0.404E-01   -.146E-04 0.748E-05 -.185E-02
   -.356E-01 -.632E-01 0.901E+02   0.195E-01 0.119E+00 -.901E+02   0.288E-01 -.157E-01 -.267E-01   0.173E-04 -.183E-05 -.185E-02
   0.371E+00 0.498E+00 0.247E+02   -.375E+00 -.484E+00 -.249E+02   0.329E-01 -.198E-02 0.184E+00   -.171E-04 -.275E-05 -.183E-02
   -.656E-01 -.455E-01 0.900E+02   0.470E-01 0.478E-01 -.899E+02   0.546E-02 0.311E-02 -.612E-01   0.140E-04 0.182E-05 -.186E-02
   0.154E+01 -.417E+00 0.240E+02   -.144E+01 0.364E+00 -.242E+02   -.102E+00 0.683E-01 0.123E+00   -.258E-04 0.889E-05 -.181E-02
   -.253E-01 0.698E-01 0.902E+02   0.446E-01 -.100E+00 -.901E+02   -.624E-02 -.223E-01 -.445E-01   -.130E-04 0.107E-04 -.183E-02
   -.816E-01 0.809E+00 0.235E+02   0.115E+00 -.781E+00 -.237E+02   -.408E-01 -.533E-01 0.225E+00   -.315E-07 -.312E-04 -.185E-02
   0.358E-01 -.240E-01 0.901E+02   -.504E-01 0.522E-01 -.900E+02   -.301E-02 -.764E-02 -.985E-01   -.215E-04 0.180E-04 -.182E-02
   -.541E+00 0.550E-01 0.250E+02   0.561E+00 -.789E-01 -.251E+02   -.462E-01 0.389E-01 0.557E-01   -.347E-05 0.453E-06 -.185E-02
   0.115E+00 0.564E-02 0.900E+02   -.997E-01 -.203E-01 -.900E+02   -.196E-01 -.729E-02 0.282E-01   0.787E-05 -.935E-05 -.187E-02
   -.970E+00 -.378E+00 0.242E+02   0.964E+00 0.384E+00 -.243E+02   0.215E-01 -.380E-01 0.108E+00   -.350E-06 0.125E-04 -.181E-02
   0.202E-01 0.123E+00 0.900E+02   0.339E-01 -.112E+00 -.900E+02   0.536E-02 -.188E-01 0.417E-02   0.150E-04 -.784E-05 -.184E-02
   -.370E+00 -.753E+00 0.233E+02   0.319E+00 0.754E+00 -.235E+02   0.766E-01 0.109E-01 0.192E+00   0.150E-04 -.620E-05 -.182E-02
   0.208E+02 0.481E+02 -.267E+03   -.310E+02 -.726E+02 0.240E+03   0.102E+02 0.245E+02 0.264E+02   -.109E-04 -.225E-03 0.146E-02
   0.113E+02 0.157E+02 -.417E+03   -.230E+02 -.410E+02 0.448E+03   0.117E+02 0.254E+02 -.314E+02   -.334E-03 -.118E-03 0.271E-02
   0.739E+01 0.970E+01 -.420E+03   -.185E+02 -.326E+02 0.455E+03   0.111E+02 0.229E+02 -.347E+02   -.310E-03 -.369E-03 0.283E-02
   0.137E+02 0.477E+02 -.260E+03   -.297E+02 -.752E+02 0.242E+03   0.160E+02 0.275E+02 0.183E+02   0.103E-03 -.297E-03 0.904E-03
   -.917E+01 -.177E+02 -.250E+03   0.217E+02 -.546E+01 0.236E+03   -.125E+02 0.231E+02 0.138E+02   0.155E-02 0.122E-03 0.612E-04
   -.237E+00 0.578E+02 -.274E+03   -.120E+02 -.775E+02 0.243E+03   0.123E+02 0.197E+02 0.303E+02   -.894E-03 0.195E-03 0.905E-03
   0.380E+02 -.420E+02 -.891E+02   -.430E+02 0.473E+02 0.921E+02   0.499E+01 -.530E+01 -.306E+01   0.330E-04 -.668E-04 0.362E-03
   -.546E+02 0.687E+00 -.102E+03   0.617E+02 -.904E+00 0.106E+03   -.700E+01 0.220E+00 -.405E+01   -.520E-04 -.334E-04 0.382E-03
   -.400E+02 -.666E+02 -.655E+02   0.442E+02 0.736E+02 0.657E+02   -.420E+01 -.694E+01 -.126E+00   -.696E-04 -.119E-03 0.429E-03
   0.179E+02 0.103E+02 0.354E+02   -.197E+02 -.114E+02 -.423E+02   0.181E+01 0.101E+01 0.691E+01   0.138E-06 0.114E-04 0.322E-03
   -.378E+02 -.753E+02 -.535E+02   0.414E+02 0.825E+02 0.528E+02   -.359E+01 -.722E+01 0.642E+00   -.120E-03 -.161E-03 0.428E-03
   0.129E+02 0.223E+02 0.323E+02   -.143E+02 -.244E+02 -.391E+02   0.134E+01 0.213E+01 0.680E+01   0.160E-05 0.180E-04 0.341E-03
   0.257E+02 -.507E+02 -.698E+02   -.294E+02 0.569E+02 0.708E+02   0.366E+01 -.625E+01 -.103E+01   0.143E-03 -.148E-03 0.207E-03
   -.571E+02 -.221E+01 -.992E+02   0.639E+02 0.191E+01 0.103E+03   -.684E+01 0.317E+00 -.423E+01   -.476E-04 -.211E-04 0.314E-03
   0.141E+02 -.615E+02 -.108E+03   -.155E+02 0.674E+02 0.113E+03   0.140E+01 -.589E+01 -.503E+01   0.131E-03 0.130E-03 0.295E-03
   0.389E+02 0.154E+02 -.103E+02   -.399E+02 -.159E+02 0.101E+02   0.909E+00 0.446E+00 0.143E+00   -.105E-05 -.305E-04 -.191E-03
   0.256E+02 -.445E+02 -.793E+02   -.294E+02 0.507E+02 0.816E+02   0.379E+01 -.622E+01 -.223E+01   -.725E-04 0.138E-04 0.313E-03
   -.587E+02 0.211E+02 -.120E+03   0.647E+02 -.230E+02 0.126E+03   -.590E+01 0.192E+01 -.546E+01   -.127E-03 0.473E-04 0.370E-03
 -----------------------------------------------------------------------------------------------
   -.385E+02 -.111E+03 -.100E+02   0.000E+00 -.249E-13 -.711E-13   0.385E+02 0.111E+03 0.101E+02   -.956E-04 -.104E-02 -.504E-01
 
 
 POSITION                                       TOTAL-FORCE (eV/Angst)
 -----------------------------------------------------------------------------------
      0.00000      0.00000      0.00000         0.010616     -0.026712      0.015023
      4.77510      8.27397      5.15742         0.013360     -0.021183     -0.008215
      0.01663      0.03712     10.76012         0.004014     -0.011900     -0.003341
     -1.59263      2.75851      0.00000        -0.033397     -0.013854     -0.013869
     -1.58352      2.75369      5.13693         0.002538     -0.002364     -0.009103
      7.92101      2.74683     10.10604        -0.005298     -0.015550      0.012197
     -3.18525      5.51702      0.00000         0.007949      0.035150     -0.029884
      6.36885      5.50276      5.13767        -0.006637      0.026562      0.004565
     -3.13608      5.55037     10.21882         0.003317      0.029231      0.013190
      3.18525      0.00000      0.00000        -0.027498     -0.017229     -0.027604
      3.19169      0.00163      5.12537        -0.009179     -0.012871      0.008026
     -1.62660      8.25194     10.05818        -0.027403     -0.007686      0.005772
      1.59263      2.75851      0.00000        -0.001393     -0.006385     -0.015961
      1.59520      2.75702      5.15130         0.005331     -0.014447     -0.012470
      1.50333      2.78753     10.27492         0.003771      0.016038      0.007470
     -0.00000      5.51702      0.00000        -0.013014      0.005983     -0.004336
      0.00252      5.51494      5.16648        -0.018119      0.025546      0.002626
     -0.04132      5.45674     10.84532         0.015041     -0.008733      0.000570
      6.37050      0.00000      0.00000         0.010525      0.029355     -0.030243
      1.60171      8.26081      5.13239        -0.007029     -0.006711     -0.001238
      1.60195      8.24420     10.20569         0.023484      0.017011      0.016155
      4.77788      2.75851      0.00000         0.034168     -0.021866      0.010301
      4.77448      2.76038      5.17344        -0.000267      0.003599      0.002953
      4.82322      2.61378     10.52417         0.014675      0.001919     -0.008582
      3.18525      5.51702      0.00000        -0.003501      0.027607     -0.035571
      3.20142      5.51353      5.17968         0.019057      0.016341     -0.005504
      3.28350      5.57033     10.36376        -0.033967     -0.016970      0.061785
      0.00000      1.83901      2.60418         0.012366     -0.033965      0.027684
      0.02357      1.80664      7.71627        -0.002696     -0.031712     -0.003415
     -1.59263      4.59751      2.60418         0.038102      0.007656      0.024494
     -1.55198      4.61609      7.69666         0.011123      0.026998      0.000601
     -3.18525      7.35602      2.60418        -0.059926      0.006303     -0.042525
     -3.19380      7.33433      7.62462        -0.014749     -0.001416      0.014542
      3.18525      1.83901      2.60418         0.012630      0.040249      0.039277
      3.19074      1.87351      7.71183         0.029347      0.011937     -0.006902
      1.59263      4.59751      2.60418        -0.013304      0.005514      0.012295
      1.60305      4.62327      7.73988        -0.004116      0.015537     -0.021189
      0.00000      7.35602      2.60418         0.012953     -0.052820      0.034720
      0.01743      7.32455      7.67798        -0.007439     -0.026053     -0.005702
      6.37050      1.83901      2.60418        -0.017830      0.020723     -0.030622
      6.35345      1.81121      7.64689        -0.026822      0.015054      0.001524
      4.77788      4.59751      2.60418        -0.004031     -0.021863      0.061400
      4.78628      4.55045      7.79364         0.015142     -0.031932     -0.026898
      3.18525      7.35602      2.60418         0.059308     -0.008590      0.039712
      3.23011      7.34700      7.75986         0.025193      0.011694     -0.016956
      9.44635      0.09723     12.91569        -0.004756      0.008284      0.012827
     -1.98411      8.04069     13.43696         0.008209      0.007729      0.043437
      7.37155      2.06541     13.42149         0.002615      0.004516      0.039181
      4.52775      2.69212     12.66053        -0.012860     -0.009057      0.007971
      3.06090      4.91030     12.35485         0.060642      0.038299      0.018067
     -0.43841      5.73307     12.96530         0.011700     -0.001595      0.004600
      8.84121      0.77166     13.31281        -0.004086      0.006152     -0.005830
      0.73507      0.09264     13.42052         0.005856      0.003629     -0.005996
      3.30248      0.60659     13.43416         0.004768      0.003927     -0.008670
     -2.21830      7.92322     12.46903        -0.006640     -0.011351     -0.023542
      7.80739      2.93972     13.32169         0.001983      0.004305     -0.009166
      7.20090      1.79772     12.47009        -0.006067     -0.005542     -0.014799
      4.04670      3.56118     12.81564        -0.017344      0.001522     -0.012938
      5.36243      2.67953     13.18246        -0.005261      0.010685     -0.014603
      2.87361      5.64464     12.97989         0.018298      0.034264      0.011092
      1.96043      4.51747     11.74997        -0.114946     -0.081762     -0.092612
     -0.91604      6.55208     13.27534        -0.003397      0.000076     -0.010449
      0.25451      5.52743     13.62027         0.014891      0.002720      0.004682
 -----------------------------------------------------------------------------------
    total drift:                                0.010394     -0.005122      0.010185


--------------------------------------------------------------------------------------------------------



  FREE ENERGIE OF THE ION-ELECTRON SYSTEM (eV)
  ---------------------------------------------------
  free  energy   TOTEN  =       -67.28811329 eV

  energy  without entropy=      -67.28811329  energy(sigma->0) =      -67.28811329
 


--------------------------------------------------------------------------------------------------------


    POTLOK:  cpu time    5.0577: real time    5.0594


--------------------------------------------------------------------------------------------------------


 stress matrix after NEB project (eV)
     -6.00963     -0.57595     -0.23817
     -0.57595     -8.32282      0.25232
     -0.23817      0.25232     -0.16906
  FORCES: max atom, RMS     0.168745    0.032142
  FORCE total and by dimension    0.255116    0.114946
  Stress total and by dimension   10.311050    8.322818
     LOOP+:  cpu time  194.8811: real time  196.5273
 vacuum level on the upper side and lower side of the slab         2.166         2.885
    4ORBIT:  cpu time    0.0000: real time    0.0000
 BZINTS: Fermi energy: -0.563416;138.000000 electrons
         Band energy:-868.793364;  BLOECHL correction: -0.101631

 total amount of memory used by VASP MPI-rank0    62213. kBytes
=======================================================================

   base      :      30000. kBytes
   nonlr-proj:       6310. kBytes
   fftplans  :       6459. kBytes
   grid      :      11407. kBytes
   one-center:         24. kBytes
   wavefun   :       8013. kBytes
 
  
  
 General timing and accounting informations for this job:
 ========================================================
  
                  Total CPU time used (sec):      240.111
                            User time (sec):      231.974
                          System time (sec):        8.137
                         Elapsed time (sec):      252.663
  
                   Maximum memory used (kb):      266808.
                   Average memory used (kb):           0.
  
                          Minor page faults:       190142
                          Major page faults:            0
                 Voluntary context switches:        76351
