<?xml version="1.0" encoding="ISO-8859-1"?>
<modeling>
 <generator>
  <i name="program" type="string">vasp </i>
  <i name="version" type="string">5.4.4.18Apr17-6-g9f103f2a35  </i>
  <i name="subversion" type="string">(build Jun 08 2018 12:06:12) complex            parallel </i>
  <i name="platform" type="string">LinuxIFC </i>
  <i name="date" type="string">2019 06 06 </i>
  <i name="time" type="string">06:58:50 </i>
 </generator>
 <incar>
  <i type="string" name="SYSTEM"> Mg_slab_in_a_box</i>
  <i type="string" name="PREC">accurate</i>
  <i type="string" name="ALGO"> V</i>
  <i type="int" name="NELM">   300</i>
  <i type="int" name="NELMIN">     6</i>
  <i name="EDIFF">      0.00000500</i>
  <i name="ENCUT">    520.00000000</i>
  <i type="string" name="LREAL"> AUTO</i>
  <i type="logical" name="LPLANE"> T  </i>
  <i type="int" name="ISMEAR">    -5</i>
  <i type="logical" name="LWAVE"> F  </i>
  <i type="logical" name="LCHARG"> T  </i>
  <i type="logical" name="LVTOT"> T  </i>
  <i type="logical" name="LVHAR"> T  </i>
  <i type="logical" name="LSCALU"> F  </i>
  <i type="logical" name="LASPH"> T  </i>
  <i type="logical" name="LAECHG"> T  </i>
  <v type="int" name="KPOINT_BSE">    -1     0     0     0</v>
  <i type="int" name="NELM">   300</i>
  <i type="string" name="GGA"> BO</i>
  <i name="PARAM1">      0.18333333</i>
  <i name="PARAM2">      0.22000000</i>
  <i type="logical" name="LUSE_VDW"> T  </i>
  <i name="AGGAC">      0.00000000</i>
  <i type="logical" name="LDIPOL"> T  </i>
  <i type="int" name="IDIPOL">     3</i>
  <i type="logical" name="LASPH"> T  </i>
 </incar>
 <structure name="primitive_cell" >
  <crystal>
   <varray name="basis" >
    <v>       9.55575275       0.00000000       0.00000000 </v>
    <v>      -4.77787638       8.27552464       0.00000000 </v>
    <v>       0.00000000       0.00000000      32.62509537 </v>
   </varray>
   <i name="volume">   2579.95558872 </i>
   <varray name="rec_basis" >
    <v>       0.10464900       0.06041913       0.00000000 </v>
    <v>       0.00000000       0.12083826       0.00000000 </v>
    <v>       0.00000000       0.00000000       0.03065125 </v>
   </varray>
  </crystal>
  <varray name="positions" >
   <v>       0.00000000       0.00000000       0.00000000 </v>
   <v>       0.00000002      -0.33333328       0.00000000 </v>
   <v>      -0.33333330      -0.33333328       0.00000000 </v>
   <v>      -0.33333332       0.00000000       0.00000000 </v>
   <v>       0.33333334       0.00000000       0.00000000 </v>
   <v>       0.00000001       0.33333336       0.00000000 </v>
   <v>       0.33333335       0.33333336       0.00000000 </v>
   <v>      -0.22222216      -0.11111106       0.07982145 </v>
   <v>       0.11111116      -0.11111106       0.07982145 </v>
   <v>       0.11111113       0.22222222       0.07982145 </v>
   <v>      -0.22222219      -0.44444439       0.07982145 </v>
   <v>      -0.22222221       0.22222222       0.07982145 </v>
   <v>       0.44444450       0.22222222       0.07982145 </v>
   <v>      -0.00038395      -0.00018752       0.15808146 </v>
   <v>       0.33333336      -0.33333328       0.00000000 </v>
   <v>      -0.33333332       0.33333336       0.00000000 </v>
   <v>       0.44444450      -0.44444439       0.07982145 </v>
   <v>       0.44444451      -0.11111106       0.07982145 </v>
   <v>       0.11111114      -0.44444439       0.07982145 </v>
   <v>      -0.33327212      -0.00177860       0.15731430 </v>
   <v>       0.33410624       0.00019713       0.15709888 </v>
   <v>       0.00066109       0.33275063       0.15745348 </v>
   <v>      -0.00103400      -0.33505558       0.15747603 </v>
   <v>       0.33351315       0.33315347       0.15789394 </v>
   <v>      -0.33185227      -0.33375455       0.15876379 </v>
   <v>       0.33347133      -0.33358426       0.15835915 </v>
   <v>      -0.33357611       0.33355964       0.15857227 </v>
   <v>       0.10890632      -0.11373211       0.23370403 </v>
   <v>       0.11162185       0.21831064       0.23651331 </v>
   <v>      -0.21807297      -0.11220135       0.23784953 </v>
   <v>      -0.22568534       0.21886396       0.23438686 </v>
   <v>       0.44710372       0.22639188       0.23637723 </v>
   <v>      -0.22418615      -0.45013133       0.23888496 </v>
   <v>       0.44436676      -0.11491400       0.23533976 </v>
   <v>       0.11648734      -0.44219998       0.23591229 </v>
   <v>       0.44709128      -0.44133228       0.23723701 </v>
   <v>       0.32835224      -0.00285039       0.30829571 </v>
   <v>      -0.00511293       0.33192248       0.30976263 </v>
   <v>      -0.33425095      -0.00378580       0.31281710 </v>
   <v>       0.00716093      -0.32930334       0.31321970 </v>
   <v>       0.32574164       0.33683986       0.31493905 </v>
   <v>       0.00398343       0.00448541       0.32981125 </v>
   <v>      -0.31983068      -0.32689101       0.31766234 </v>
   <v>      -0.33733281       0.31584472       0.32257910 </v>
   <v>       0.32536731      -0.34061717       0.33242269 </v>
   <v>       0.47809875      -0.45411679       0.36015113 </v>
   <v>       0.24657097      -0.04257132       0.38219150 </v>
   <v>      -0.13781690       0.21723293       0.38222385 </v>
   <v>      -0.00557441       0.01174858       0.39588216 </v>
   <v>      -0.38300387      -0.40664778       0.37869166 </v>
   <v>      -0.02815317       0.09324606       0.40805417 </v>
   <v>      -0.35823479      -0.31791114       0.39784982 </v>
   <v>       0.08252145       0.01119499       0.41135560 </v>
   <v>      -0.36135347       0.43032683       0.39281531 </v>
   <v>      -0.36352008       0.32531076       0.38806094 </v>
   <v>       0.27817663      -0.02837664       0.41185979 </v>
   <v>      -0.00534877       0.35523092       0.40832636 </v>
   <v>      -0.10378411       0.24958047       0.41138546 </v>
   <v>       0.38225121       0.07329960       0.41177374 </v>
   <v>       0.30050768      -0.30722574       0.39740257 </v>
   <v>       0.30000880      -0.20825751       0.40690579 </v>
   <v>      -0.27693201       0.32378936       0.40405897 </v>
   <v>       0.36059634      -0.33207527       0.41747824 </v>
  </varray>
 </structure>
 <varray name="primitive_index" >
  <v type="int" >        1 </v>
  <v type="int" >        7 </v>
  <v type="int" >       25 </v>
  <v type="int" >       19 </v>
  <v type="int" >       10 </v>
  <v type="int" >        4 </v>
  <v type="int" >       13 </v>
  <v type="int" >       44 </v>
  <v type="int" >       32 </v>
  <v type="int" >       28 </v>
  <v type="int" >       42 </v>
  <v type="int" >       40 </v>
  <v type="int" >       34 </v>
  <v type="int" >        2 </v>
  <v type="int" >       16 </v>
  <v type="int" >       22 </v>
  <v type="int" >       36 </v>
  <v type="int" >       38 </v>
  <v type="int" >       30 </v>
  <v type="int" >       20 </v>
  <v type="int" >       11 </v>
  <v type="int" >        5 </v>
  <v type="int" >        8 </v>
  <v type="int" >       14 </v>
  <v type="int" >       26 </v>
  <v type="int" >       17 </v>
  <v type="int" >       23 </v>
  <v type="int" >       33 </v>
  <v type="int" >       29 </v>
  <v type="int" >       45 </v>
  <v type="int" >       41 </v>
  <v type="int" >       35 </v>
  <v type="int" >       43 </v>
  <v type="int" >       39 </v>
  <v type="int" >       31 </v>
  <v type="int" >       37 </v>
  <v type="int" >       12 </v>
  <v type="int" >        6 </v>
  <v type="int" >       21 </v>
  <v type="int" >        9 </v>
  <v type="int" >       15 </v>
  <v type="int" >        3 </v>
  <v type="int" >       27 </v>
  <v type="int" >       24 </v>
  <v type="int" >       18 </v>
  <v type="int" >       61 </v>
  <v type="int" >       55 </v>
  <v type="int" >       57 </v>
  <v type="int" >       46 </v>
  <v type="int" >       50 </v>
  <v type="int" >       52 </v>
  <v type="int" >       60 </v>
  <v type="int" >       53 </v>
  <v type="int" >       58 </v>
  <v type="int" >       49 </v>
  <v type="int" >       47 </v>
  <v type="int" >       56 </v>
  <v type="int" >       48 </v>
  <v type="int" >       54 </v>
  <v type="int" >       51 </v>
  <v type="int" >       62 </v>
  <v type="int" >       59 </v>
  <v type="int" >       63 </v>
 </varray>
 <kpoints>
  <generation param="Gamma">
   <v type="int" name="divisions">       3        3        1 </v>
   <v name="usershift">      0.00000000       0.00000000       0.00000000 </v>
   <v name="genvec1">      0.33333333       0.00000000       0.00000000 </v>
   <v name="genvec2">      0.00000000       0.33333333       0.00000000 </v>
   <v name="genvec3">      0.00000000       0.00000000       1.00000000 </v>
   <v name="shift">      0.00000000       0.00000000       0.00000000 </v>
  </generation>
  <varray name="kpointlist" >
   <v>       0.00000000       0.00000000       0.00000000 </v>
   <v>       0.33333333      -0.00000000       0.00000000 </v>
   <v>       0.00000000       0.33333333       0.00000000 </v>
   <v>       0.33333333       0.33333333       0.00000000 </v>
   <v>      -0.33333333       0.33333333       0.00000000 </v>
  </varray>
  <varray name="weights" >
   <v>       0.11111111 </v>
   <v>       0.22222222 </v>
   <v>       0.22222222 </v>
   <v>       0.22222222 </v>
   <v>       0.22222222 </v>
  </varray>
  <varray name="tetrahedronlist"  type="int" >
   <v type="int" >        2        2        3        3        4 </v>
   <v type="int" >        2        1        2        3        3 </v>
   <v type="int" >        2        1        1        2        3 </v>
   <v type="int" >        2        2        3        4        4 </v>
   <v type="int" >        2        2        2        3        4 </v>
   <v type="int" >        2        1        2        2        3 </v>
   <v type="int" >        2        2        4        4        5 </v>
   <v type="int" >        2        2        2        4        4 </v>
   <v type="int" >        4        2        2        2        4 </v>
   <v type="int" >        2        2        4        5        5 </v>
   <v type="int" >        2        2        2        4        5 </v>
   <v type="int" >        2        1        3        5        5 </v>
   <v type="int" >        2        1        2        5        5 </v>
   <v type="int" >        2        1        2        2        5 </v>
   <v type="int" >        2        1        3        3        5 </v>
   <v type="int" >        2        1        1        3        5 </v>
   <v type="int" >        2        1        1        2        5 </v>
   <v type="int" >        2        3        3        4        5 </v>
   <v type="int" >        4        3        3        3        4 </v>
   <v type="int" >        2        3        4        5        5 </v>
   <v type="int" >        2        3        4        4        5 </v>
   <v type="int" >        2        3        3        4        4 </v>
   <v type="int" >        4        4        5        5        5 </v>
   <v type="int" >        2        4        4        5        5 </v>
  </varray>
  <i name="volumeweight">      0.01851852 </i>
 </kpoints>
 <parameters>
  <separator name="general" >
   <i type="string" name="SYSTEM">Mg_slab_in_a_box</i>
   <i type="logical" name="LCOMPAT"> F  </i>
  </separator>
  <separator name="electronic" >
   <i type="string" name="PREC">accura</i>
   <i name="ENMAX">    520.00000000</i>
   <i name="ENAUG">    605.39200000</i>
   <i name="EDIFF">      0.00000500</i>
   <i type="int" name="IALGO">    48</i>
   <i type="int" name="IWAVPR">    10</i>
   <i type="int" name="NBANDS">   102</i>
   <i name="NELECT">    138.00000000</i>
   <i type="int" name="TURBO">     0</i>
   <i type="int" name="IRESTART">     0</i>
   <i type="int" name="NREBOOT">     0</i>
   <i type="int" name="NMIN">     0</i>
   <i name="EREF">      0.00000000</i>
   <separator name="electronic smearing" >
    <i type="int" name="ISMEAR">    -5</i>
    <i name="SIGMA">      0.20000000</i>
    <i name="KSPACING">      0.50000000</i>
    <i type="logical" name="KGAMMA"> T  </i>
   </separator>
   <separator name="electronic projectors" >
    <i type="logical" name="LREAL"> T  </i>
    <v name="ROPT">     -0.00025000     -0.00025000     -0.00025000</v>
    <i type="int" name="LMAXPAW">  -100</i>
    <i type="int" name="LMAXMIX">     2</i>
    <i type="logical" name="NLSPLINE"> F  </i>
   </separator>
   <separator name="electronic startup" >
    <i type="int" name="ISTART">     0</i>
    <i type="int" name="ICHARG">     2</i>
    <i type="int" name="INIWAV">     1</i>
   </separator>
   <separator name="electronic spin" >
    <i type="int" name="ISPIN">     1</i>
    <i type="logical" name="LNONCOLLINEAR"> F  </i>
    <v name="MAGMOM">      1.00000000      1.00000000      1.00000000      1.00000000      1.00000000      1.00000000      1.00000000      1.00000000      1.00000000      1.00000000      1.00000000      1.00000000      1.00000000      1.00000000      1.00000000      1.00000000      1.00000000      1.00000000      1.00000000      1.00000000
      1.00000000      1.00000000      1.00000000      1.00000000      1.00000000      1.00000000      1.00000000      1.00000000      1.00000000      1.00000000      1.00000000      1.00000000      1.00000000      1.00000000      1.00000000      1.00000000      1.00000000      1.00000000      1.00000000      1.00000000
      1.00000000      1.00000000      1.00000000      1.00000000      1.00000000      1.00000000      1.00000000      1.00000000      1.00000000      1.00000000      1.00000000      1.00000000      1.00000000      1.00000000      1.00000000      1.00000000      1.00000000      1.00000000      1.00000000      1.00000000
      1.00000000      1.00000000      1.00000000</v>
    <i name="NUPDOWN">     -1.00000000</i>
    <i type="logical" name="LSORBIT"> F  </i>
    <v name="SAXIS">      0.00000000      0.00000000      1.00000000</v>
    <i type="logical" name="LSPIRAL"> F  </i>
    <v name="QSPIRAL">      0.00000000      0.00000000      0.00000000</v>
    <i type="logical" name="LZEROZ"> F  </i>
   </separator>
   <separator name="electronic exchange-correlation" >
    <i type="logical" name="LASPH"> T  </i>
    <i type="logical" name="LMETAGGA"> F  </i>
   </separator>
   <separator name="electronic convergence" >
    <i type="int" name="NELM">   300</i>
    <i type="int" name="NELMDL">   -12</i>
    <i type="int" name="NELMIN">     6</i>
    <i name="ENINI">    520.00000000</i>
    <separator name="electronic convergence detail" >
     <i type="logical" name="LDIAG"> T  </i>
     <i type="logical" name="LSUBROT"> F  </i>
     <i name="WEIMIN">      0.00000000</i>
     <i name="EBREAK">      0.00000001</i>
     <i name="DEPER">      0.30000000</i>
     <i type="int" name="NRMM">     4</i>
     <i name="TIME">      0.40000000</i>
    </separator>
   </separator>
   <separator name="electronic mixer" >
    <i name="AMIX">      0.40000000</i>
    <i name="BMIX">      1.00000000</i>
    <i name="AMIN">      0.10000000</i>
    <i name="AMIX_MAG">      1.60000000</i>
    <i name="BMIX_MAG">      1.00000000</i>
    <separator name="electronic mixer details" >
     <i type="int" name="IMIX">     4</i>
     <i type="logical" name="MIXFIRST"> F  </i>
     <i type="int" name="MAXMIX">   -45</i>
     <i name="WC">    100.00000000</i>
     <i type="int" name="INIMIX">     1</i>
     <i type="int" name="MIXPRE">     1</i>
     <i type="int" name="MREMOVE">     5</i>
    </separator>
   </separator>
   <separator name="electronic dipolcorrection" >
    <i type="logical" name="LDIPOL"> T  </i>
    <i type="logical" name="LMONO"> F  </i>
    <i type="int" name="IDIPOL">     3</i>
    <i name="EPSILON">      1.00000000</i>
    <v name="DIPOL">   -100.00000000   -100.00000000   -100.00000000</v>
    <i name="EFIELD">      0.00000000</i>
   </separator>
  </separator>
  <separator name="grids" >
   <i type="int" name="NGX">    72</i>
   <i type="int" name="NGY">    72</i>
   <i type="int" name="NGZ">   250</i>
   <i type="int" name="NGXF">   144</i>
   <i type="int" name="NGYF">   144</i>
   <i type="int" name="NGZF">   500</i>
   <i type="logical" name="ADDGRID"> F  </i>
  </separator>
  <separator name="ionic" >
   <i type="int" name="NSW">     0</i>
   <i type="int" name="IBRION">    -1</i>
   <i type="int" name="MDALGO">     0</i>
   <i type="int" name="ISIF">     2</i>
   <i name="PSTRESS">      0.00000000</i>
   <i name="EDIFFG">      0.00005000</i>
   <i type="int" name="NFREE">     0</i>
   <i name="POTIM">      0.50000000</i>
   <i name="SMASS">     -3.00000000</i>
   <i name="SCALEE">      1.00000000</i>
  </separator>
  <separator name="ionic md" >
   <i name="TEBEG">      0.00010000</i>
   <i name="TEEND">      0.00010000</i>
   <i type="int" name="NBLOCK">     1</i>
   <i type="int" name="KBLOCK">     1</i>
   <i type="int" name="NPACO">   256</i>
   <i name="APACO">     16.00000000</i>
  </separator>
  <separator name="symmetry" >
   <i type="int" name="ISYM">     2</i>
   <i name="SYMPREC">      0.00001000</i>
  </separator>
  <separator name="dos" >
   <i type="int" name="LORBIT">     0</i>
   <v name="RWIGS">     -1.00000000     -1.00000000     -1.00000000</v>
   <i type="int" name="NEDOS">   301</i>
   <i name="EMIN">     10.00000000</i>
   <i name="EMAX">    -10.00000000</i>
   <i name="EFERMI">      0.00000000</i>
  </separator>
  <separator name="writing" >
   <i type="int" name="NWRITE">     2</i>
   <i type="logical" name="LWAVE"> F  </i>
   <i type="logical" name="LDOWNSAMPLE"> F  </i>
   <i type="logical" name="LCHARG"> T  </i>
   <i type="logical" name="LPARD"> F  </i>
   <i type="logical" name="LVTOT"> F  </i>
   <i type="logical" name="LVHAR"> T  </i>
   <i type="logical" name="LELF"> F  </i>
   <i type="logical" name="LOPTICS"> F  </i>
   <v name="STM">      0.00000000      0.00000000      0.00000000      0.00000000      0.00000000      0.00000000      0.00000000</v>
  </separator>
  <separator name="performance" >
   <i type="int" name="NPAR">     3</i>
   <i type="int" name="NSIM">     4</i>
   <i type="int" name="NBLK">    -1</i>
   <i type="logical" name="LPLANE"> T  </i>
   <i type="logical" name="LSCALAPACK"> T  </i>
   <i type="logical" name="LSCAAWARE"> F  </i>
   <i type="logical" name="LSCALU"> F  </i>
   <i type="logical" name="LASYNC"> F  </i>
   <i type="logical" name="LORBITALREAL"> F  </i>
  </separator>
  <separator name="miscellaneous" >
   <i type="int" name="IDIOT">     3</i>
   <i type="int" name="ISPECIAL">     0</i>
   <i type="logical" name="LMUSIC"> F  </i>
   <v name="POMASS">     24.30500000     16.00000000      1.00000000</v>
   <v name="DARWINR">      0.00000000      0.00000000      0.00000000</v>
   <v name="DARWINV">      1.00000000      1.00000000      1.00000000</v>
   <i type="logical" name="LCORR"> T  </i>
  </separator>
  <i type="logical" name="GGA_COMPAT"> T  </i>
  <i type="logical" name="LBERRY"> F  </i>
  <i type="int" name="ICORELEVEL">     0</i>
  <i type="logical" name="LDAU"> F  </i>
  <i type="int" name="I_CONSTRAINED_M">     0</i>
  <separator name="electronic exchange-correlation" >
   <i type="string" name="GGA">BO</i>
   <i type="int" name="VOSKOWN">     0</i>
   <i type="logical" name="LHFCALC"> F  </i>
   <i type="string" name="PRECFOCK"></i>
   <i type="logical" name="LSYMGRAD"> F  </i>
   <i type="logical" name="LHFONE"> F  </i>
   <i type="logical" name="LRHFCALC"> F  </i>
   <i type="logical" name="LTHOMAS"> F  </i>
   <i type="logical" name="LMODELHF"> F  </i>
   <i name="ENCUT4O">     -1.00000000</i>
   <i type="int" name="EXXOEP">     0</i>
   <i type="int" name="FOURORBIT">     0</i>
   <i name="AEXX">      0.00000000</i>
   <i name="HFALPHA">      0.00000000</i>
   <i name="MCALPHA">      0.00000000</i>
   <i name="ALDAX">      1.00000000</i>
   <i name="AGGAX">      1.00000000</i>
   <i name="ALDAC">      1.00000000</i>
   <i name="AGGAC">      0.00000000</i>
   <i type="int" name="NKREDX">     1</i>
   <i type="int" name="NKREDY">     1</i>
   <i type="int" name="NKREDZ">     1</i>
   <i type="logical" name="SHIFTRED"> F  </i>
   <i type="logical" name="ODDONLY"> F  </i>
   <i type="logical" name="EVENONLY"> F  </i>
   <i type="int" name="LMAXFOCK">     0</i>
   <i type="int" name="NMAXFOCKAE">     0</i>
   <i type="logical" name="LFOCKAEDFT"> F  </i>
   <i name="HFSCREEN">      0.00000000</i>
   <i name="HFSCREENC">      0.00000000</i>
   <i type="int" name="NBANDSGWLOW">     0</i>
  </separator>
  <separator name="vdW DFT" >
   <i type="logical" name="LUSE_VDW"> T  </i>
   <i name="Zab_VDW">     -0.84910000</i>
   <i name="PARAM1">      0.18333333</i>
   <i name="PARAM2">      0.22000000</i>
   <i name="PARAM3">      0.00000000</i>
  </separator>
  <separator name="model GW" >
   <i type="int" name="MODEL_GW">     0</i>
   <i name="MODEL_EPS0">     24.57100561</i>
   <i name="MODEL_ALPHA">      1.00000000</i>
  </separator>
  <separator name="linear response parameters" >
   <i type="logical" name="LEPSILON"> F  </i>
   <i type="logical" name="LRPA"> F  </i>
   <i type="logical" name="LNABLA"> F  </i>
   <i type="logical" name="LVEL"> F  </i>
   <i type="int" name="KINTER">     0</i>
   <i name="CSHIFT">      0.10000000</i>
   <i name="OMEGAMAX">     -1.00000000</i>
   <i name="DEG_THRESHOLD">      0.00200000</i>
   <i name="RTIME">     -0.10000000</i>
   <i name="WPLASMAI">      0.00000000</i>
   <v name="DFIELD">      0.00000000      0.00000000      0.00000000</v>
   <v name="WPLASMA">      0.00000000      0.00000000      0.00000000      0.00000000      0.00000000      0.00000000      0.00000000      0.00000000      0.00000000</v>
  </separator>
  <separator name="orbital magnetization" >
   <i type="logical" name="NUCIND"> F  </i>
   <v name="MAGPOS">      0.00000000      0.00000000      0.00000000</v>
   <i type="logical" name="LNICSALL"> T  </i>
   <i type="logical" name="ORBITALMAG"> F  </i>
   <i type="logical" name="LMAGBLOCH"> F  </i>
   <i type="logical" name="LCHIMAG"> F  </i>
   <i type="logical" name="LGAUGE"> T  </i>
   <i type="int" name="MAGATOM">     0</i>
   <v name="MAGDIPOL">      0.00000000      0.00000000      0.00000000</v>
   <v name="AVECCONST">      0.00000000      0.00000000      0.00000000</v>
  </separator>
  <separator name="response functions" >
   <i type="logical" name="LADDER"> F  </i>
   <i type="logical" name="LRPAFORCE"> F  </i>
   <i type="logical" name="LFXC"> F  </i>
   <i type="logical" name="LHARTREE"> T  </i>
   <i type="int" name="IBSE">     0</i>
   <v type="int" name="KPOINT">    -1     0     0     0</v>
   <i type="logical" name="LTCTE"> F  </i>
   <i type="logical" name="LTETE"> F  </i>
   <i type="logical" name="LTRIPLET"> F  </i>
   <i type="logical" name="LFXCEPS"> F  </i>
   <i type="logical" name="LFXHEG"> F  </i>
   <i type="int" name="NATURALO">     2</i>
   <i type="logical" name="L2ORDER"> F  </i>
   <i type="logical" name="LMP2LT"> F  </i>
   <i type="logical" name="LUSEW"> F  </i>
   <i name="ENCUTGW">     -2.00000000</i>
   <i name="ENCUTGWSOFT">     -2.00000000</i>
   <i name="ENCUTLF">     -1.00000000</i>
   <i type="int" name="LMAXMP2">    -1</i>
   <i name="SCISSOR">      0.00000000</i>
   <i type="int" name="NOMEGA">     0</i>
   <i type="int" name="NOMEGAR">     0</i>
   <i type="int" name="NBANDSGW">    -1</i>
   <i type="int" name="NBANDSO">    -1</i>
   <i type="int" name="NBANDSV">    -1</i>
   <i type="int" name="NELM">   300</i>
   <i type="int" name="NELMHF">     1</i>
   <i type="int" name="DIM">     3</i>
   <i type="int" name="ANTIRES">     0</i>
   <i name="OMEGAMAX">    -30.00000000</i>
   <i name="OMEGAMIN">    -30.00000000</i>
   <i name="OMEGATL">   -200.00000000</i>
   <i type="int" name="OMEGAGRID">   140</i>
   <i name="CSHIFT">     -0.10000000</i>
   <i type="logical" name="SELFENERGY"> F  </i>
   <i type="logical" name="LSPECTRAL"> F  </i>
   <i type="logical" name="LSPECTRALGW"> F  </i>
   <i type="logical" name="LSINGLES"> F  </i>
   <i type="logical" name="LFERMIGW"> F  </i>
   <i type="logical" name="ODDONLYGW"> F  </i>
   <i type="logical" name="EVENONLYGW"> F  </i>
   <i type="int" name="NKREDLFX">     1</i>
   <i type="int" name="NKREDLFY">     1</i>
   <i type="int" name="NKREDLFZ">     1</i>
   <i type="int" name="MAXMEM">  2800</i>
   <i type="int" name="TELESCOPE">     0</i>
   <i type="int" name="TAUPAR">     1</i>
   <i type="int" name="OMEGAPAR">    -1</i>
   <i name="LAMBDA">      1.00000000</i>
  </separator>
  <separator name="External order field" >
   <i name="OFIELD_KAPPA">      0.00000000</i>
   <v name="OFIELD_K">      0.00000000      0.00000000      0.00000000</v>
   <i name="OFIELD_Q6_NEAR">      0.00000000</i>
   <i name="OFIELD_Q6_FAR">      0.00000000</i>
   <i name="OFIELD_A">      0.00000000</i>
  </separator>
 </parameters>
 <atominfo>
  <atoms>      63 </atoms>
  <types>       3 </types>
  <array name="atoms" >
   <dimension dim="1">ion</dimension>
   <field type="string">element</field>
   <field type="int">atomtype</field>
   <set>
    <rc><c>Mg</c><c>   1</c></rc>
    <rc><c>Mg</c><c>   1</c></rc>
    <rc><c>Mg</c><c>   1</c></rc>
    <rc><c>Mg</c><c>   1</c></rc>
    <rc><c>Mg</c><c>   1</c></rc>
    <rc><c>Mg</c><c>   1</c></rc>
    <rc><c>Mg</c><c>   1</c></rc>
    <rc><c>Mg</c><c>   1</c></rc>
    <rc><c>Mg</c><c>   1</c></rc>
    <rc><c>Mg</c><c>   1</c></rc>
    <rc><c>Mg</c><c>   1</c></rc>
    <rc><c>Mg</c><c>   1</c></rc>
    <rc><c>Mg</c><c>   1</c></rc>
    <rc><c>Mg</c><c>   1</c></rc>
    <rc><c>Mg</c><c>   1</c></rc>
    <rc><c>Mg</c><c>   1</c></rc>
    <rc><c>Mg</c><c>   1</c></rc>
    <rc><c>Mg</c><c>   1</c></rc>
    <rc><c>Mg</c><c>   1</c></rc>
    <rc><c>Mg</c><c>   1</c></rc>
    <rc><c>Mg</c><c>   1</c></rc>
    <rc><c>Mg</c><c>   1</c></rc>
    <rc><c>Mg</c><c>   1</c></rc>
    <rc><c>Mg</c><c>   1</c></rc>
    <rc><c>Mg</c><c>   1</c></rc>
    <rc><c>Mg</c><c>   1</c></rc>
    <rc><c>Mg</c><c>   1</c></rc>
    <rc><c>Mg</c><c>   1</c></rc>
    <rc><c>Mg</c><c>   1</c></rc>
    <rc><c>Mg</c><c>   1</c></rc>
    <rc><c>Mg</c><c>   1</c></rc>
    <rc><c>Mg</c><c>   1</c></rc>
    <rc><c>Mg</c><c>   1</c></rc>
    <rc><c>Mg</c><c>   1</c></rc>
    <rc><c>Mg</c><c>   1</c></rc>
    <rc><c>Mg</c><c>   1</c></rc>
    <rc><c>Mg</c><c>   1</c></rc>
    <rc><c>Mg</c><c>   1</c></rc>
    <rc><c>Mg</c><c>   1</c></rc>
    <rc><c>Mg</c><c>   1</c></rc>
    <rc><c>Mg</c><c>   1</c></rc>
    <rc><c>Mg</c><c>   1</c></rc>
    <rc><c>Mg</c><c>   1</c></rc>
    <rc><c>Mg</c><c>   1</c></rc>
    <rc><c>Mg</c><c>   1</c></rc>
    <rc><c>O </c><c>   2</c></rc>
    <rc><c>O </c><c>   2</c></rc>
    <rc><c>O </c><c>   2</c></rc>
    <rc><c>O </c><c>   2</c></rc>
    <rc><c>O </c><c>   2</c></rc>
    <rc><c>O </c><c>   2</c></rc>
    <rc><c>H </c><c>   3</c></rc>
    <rc><c>H </c><c>   3</c></rc>
    <rc><c>H </c><c>   3</c></rc>
    <rc><c>H </c><c>   3</c></rc>
    <rc><c>H </c><c>   3</c></rc>
    <rc><c>H </c><c>   3</c></rc>
    <rc><c>H </c><c>   3</c></rc>
    <rc><c>H </c><c>   3</c></rc>
    <rc><c>H </c><c>   3</c></rc>
    <rc><c>H </c><c>   3</c></rc>
    <rc><c>H </c><c>   3</c></rc>
    <rc><c>H </c><c>   3</c></rc>
   </set>
  </array>
  <array name="atomtypes" >
   <dimension dim="1">type</dimension>
   <field type="int">atomspertype</field>
   <field type="string">element</field>
   <field>mass</field>
   <field>valence</field>
   <field type="string">pseudopotential</field>
   <set>
    <rc><c>  45</c><c>Mg</c><c>     24.30500000</c><c>      2.00000000</c><c>  PAW_PBE Mg 13Apr2007                  </c></rc>
    <rc><c>   6</c><c>O </c><c>     16.00000000</c><c>      6.00000000</c><c>  PAW_PBE O 08Apr2002                   </c></rc>
    <rc><c>  12</c><c>H </c><c>      1.00000000</c><c>      1.00000000</c><c>  PAW_PBE H 15Jun2001                   </c></rc>
   </set>
  </array>
 </atominfo>
 <structure name="initialpos" >
  <crystal>
   <varray name="basis" >
    <v>       9.55575275       0.00000000       0.00000000 </v>
    <v>      -4.77787638       8.27552464       0.00000000 </v>
    <v>       0.00000000       0.00000000      32.62509537 </v>
   </varray>
   <i name="volume">   2579.95558872 </i>
   <varray name="rec_basis" >
    <v>       0.10464900       0.06041913       0.00000000 </v>
    <v>       0.00000000       0.12083826       0.00000000 </v>
    <v>       0.00000000       0.00000000       0.03065125 </v>
   </varray>
  </crystal>
  <varray name="positions" >
   <v>       0.00000000       0.00000000       0.00000000 </v>
   <v>       0.99961605       0.99981248       0.15808146 </v>
   <v>       0.00398343       0.00448541       0.32981125 </v>
   <v>       0.00000001       0.33333336       0.00000000 </v>
   <v>       0.00066109       0.33275063       0.15745348 </v>
   <v>       0.99488707       0.33192248       0.30976263 </v>
   <v>       0.00000002       0.66666672       0.00000000 </v>
   <v>       0.99896600       0.66494442       0.15747603 </v>
   <v>       0.00716093       0.67069666       0.31321970 </v>
   <v>       0.33333334       0.00000000       0.00000000 </v>
   <v>       0.33410624       0.00019713       0.15709888 </v>
   <v>       0.32835224       0.99714961       0.30829571 </v>
   <v>       0.33333335       0.33333336       0.00000000 </v>
   <v>       0.33351315       0.33315347       0.15789394 </v>
   <v>       0.32574164       0.33683986       0.31493905 </v>
   <v>       0.33333336       0.66666672       0.00000000 </v>
   <v>       0.33347133       0.66641574       0.15835915 </v>
   <v>       0.32536731       0.65938283       0.33242269 </v>
   <v>       0.66666668       0.00000000       0.00000000 </v>
   <v>       0.66672788       0.99822140       0.15731430 </v>
   <v>       0.66574905       0.99621420       0.31281710 </v>
   <v>       0.66666668       0.33333336       0.00000000 </v>
   <v>       0.66642389       0.33355964       0.15857227 </v>
   <v>       0.66266719       0.31584472       0.32257910 </v>
   <v>       0.66666670       0.66666672       0.00000000 </v>
   <v>       0.66814773       0.66624545       0.15876379 </v>
   <v>       0.68016932       0.67310899       0.31766234 </v>
   <v>       0.11111113       0.22222222       0.07982145 </v>
   <v>       0.11162185       0.21831064       0.23651331 </v>
   <v>       0.11111114       0.55555561       0.07982145 </v>
   <v>       0.11648734       0.55780002       0.23591229 </v>
   <v>       0.11111116       0.88888894       0.07982145 </v>
   <v>       0.10890632       0.88626789       0.23370403 </v>
   <v>       0.44444450       0.22222222       0.07982145 </v>
   <v>       0.44710372       0.22639188       0.23637723 </v>
   <v>       0.44444450       0.55555561       0.07982145 </v>
   <v>       0.44709128       0.55866772       0.23723701 </v>
   <v>       0.44444451       0.88888894       0.07982145 </v>
   <v>       0.44436676       0.88508600       0.23533976 </v>
   <v>       0.77777779       0.22222222       0.07982145 </v>
   <v>       0.77431466       0.21886396       0.23438686 </v>
   <v>       0.77777781       0.55555561       0.07982145 </v>
   <v>       0.77581385       0.54986867       0.23888496 </v>
   <v>       0.77777784       0.88888894       0.07982145 </v>
   <v>       0.78192703       0.88779865       0.23784953 </v>
   <v>       0.99442559       0.01174858       0.39588216 </v>
   <v>       0.27817663       0.97162336       0.41185979 </v>
   <v>       0.89621589       0.24958047       0.41138546 </v>
   <v>       0.63647992       0.32531076       0.38806094 </v>
   <v>       0.61699613       0.59335222       0.37869166 </v>
   <v>       0.30050768       0.69277426       0.39740257 </v>
   <v>       0.97184683       0.09324606       0.40805417 </v>
   <v>       0.08252145       0.01119499       0.41135560 </v>
   <v>       0.38225121       0.07329960       0.41177374 </v>
   <v>       0.24657097       0.95742868       0.38219150 </v>
   <v>       0.99465123       0.35523092       0.40832636 </v>
   <v>       0.86218310       0.21723293       0.38222385 </v>
   <v>       0.63864653       0.43032683       0.39281531 </v>
   <v>       0.72306799       0.32378936       0.40405897 </v>
   <v>       0.64176521       0.68208886       0.39784982 </v>
   <v>       0.47809875       0.54588321       0.36015113 </v>
   <v>       0.30000880       0.79174249       0.40690579 </v>
   <v>       0.36059634       0.66792473       0.41747824 </v>
  </varray>
  <varray name="selective"  type="logical" >
   <v type="logical" >  F  F  F </v>
   <v type="logical" >  T  T  T </v>
   <v type="logical" >  T  T  T </v>
   <v type="logical" >  F  F  F </v>
   <v type="logical" >  T  T  T </v>
   <v type="logical" >  T  T  T </v>
   <v type="logical" >  F  F  F </v>
   <v type="logical" >  T  T  T </v>
   <v type="logical" >  T  T  T </v>
   <v type="logical" >  F  F  F </v>
   <v type="logical" >  T  T  T </v>
   <v type="logical" >  T  T  T </v>
   <v type="logical" >  F  F  F </v>
   <v type="logical" >  T  T  T </v>
   <v type="logical" >  T  T  T </v>
   <v type="logical" >  F  F  F </v>
   <v type="logical" >  T  T  T </v>
   <v type="logical" >  T  T  T </v>
   <v type="logical" >  F  F  F </v>
   <v type="logical" >  T  T  T </v>
   <v type="logical" >  T  T  T </v>
   <v type="logical" >  F  F  F </v>
   <v type="logical" >  T  T  T </v>
   <v type="logical" >  T  T  T </v>
   <v type="logical" >  F  F  F </v>
   <v type="logical" >  T  T  T </v>
   <v type="logical" >  T  T  T </v>
   <v type="logical" >  F  F  F </v>
   <v type="logical" >  T  T  T </v>
   <v type="logical" >  F  F  F </v>
   <v type="logical" >  T  T  T </v>
   <v type="logical" >  F  F  F </v>
   <v type="logical" >  T  T  T </v>
   <v type="logical" >  F  F  F </v>
   <v type="logical" >  T  T  T </v>
   <v type="logical" >  F  F  F </v>
   <v type="logical" >  T  T  T </v>
   <v type="logical" >  F  F  F </v>
   <v type="logical" >  T  T  T </v>
   <v type="logical" >  F  F  F </v>
   <v type="logical" >  T  T  T </v>
   <v type="logical" >  F  F  F </v>
   <v type="logical" >  T  T  T </v>
   <v type="logical" >  F  F  F </v>
   <v type="logical" >  T  T  T </v>
   <v type="logical" >  T  T  T </v>
   <v type="logical" >  T  T  T </v>
   <v type="logical" >  T  T  T </v>
   <v type="logical" >  T  T  T </v>
   <v type="logical" >  T  T  T </v>
   <v type="logical" >  T  T  T </v>
   <v type="logical" >  T  T  T </v>
   <v type="logical" >  T  T  T </v>
   <v type="logical" >  T  T  T </v>
   <v type="logical" >  T  T  T </v>
   <v type="logical" >  T  T  T </v>
   <v type="logical" >  T  T  T </v>
   <v type="logical" >  T  T  T </v>
   <v type="logical" >  T  T  T </v>
   <v type="logical" >  T  T  T </v>
   <v type="logical" >  T  T  T </v>
   <v type="logical" >  T  T  T </v>
   <v type="logical" >  T  T  T </v>
  </varray>
  <nose>
   <v>      -3.00000000       0.00000000       0.00010000       0.00010000 </v>
  </nose>
 </structure>
 <calculation>
  <scstep>
   <time name="diag">    0.48    0.49</time>
   <time name="diis">    1.05    1.05</time>
   <time name="orth">    0.07    0.07</time>
   <time name="total">    7.08    7.22</time>
   <dipole>
    <v name="dipole">      0.00000000       0.00000000      -0.00039632 </v>
    <i name="Tr[quadrupol]">  -1889.15231208 </i>
    <i name="Echarged">      0.00000000 </i>
    <i name="Edipol_quadrupol">      0.00000000 </i>
    <i name="Eion">      0.00000000 </i>
   </dipole>
   <energy>
    <i name="alphaZ">     63.16526479 </i>
    <i name="ewald">  13075.69536986 </i>
    <i name="hartreedc"> -16302.57306379 </i>
    <i name="XCdc">  -2050.85114256 </i>
    <i name="pawpsdc">   5135.15659847 </i>
    <i name="pawaedc">  -2719.01140655 </i>
    <i name="eentropy">      0.00000000 </i>
    <i name="bandstr">    211.57465600 </i>
    <i name="atom">   3827.98814510 </i>
    <i name="e_fr_energy">   1241.14442132 </i>
    <i name="e_wo_entrp">   1241.14442132 </i>
    <i name="e_0_energy">   1241.14442132 </i>
   </energy>
  </scstep>
  <scstep>
   <time name="diag">    0.49    0.51</time>
   <time name="diis">    1.05    1.05</time>
   <time name="orth">    0.07    0.07</time>
   <time name="total">    1.62    1.64</time>
   <dipole>
    <v name="dipole">      0.00000000       0.00000000      -0.00039632 </v>
    <i name="Tr[quadrupol]">  -1889.15231208 </i>
    <i name="Echarged">      0.00000000 </i>
    <i name="Edipol_quadrupol">      0.00000000 </i>
    <i name="Eion">      0.00000000 </i>
   </dipole>
   <energy>
    <i name="e_fr_energy">    544.86389136 </i>
    <i name="e_wo_entrp">    544.86389136 </i>
    <i name="e_0_energy">    544.86389136 </i>
   </energy>
  </scstep>
  <scstep>
   <time name="diag">    0.49    0.52</time>
   <time name="diis">    1.05    1.05</time>
   <time name="orth">    0.07    0.07</time>
   <time name="total">    1.61    1.64</time>
   <dipole>
    <v name="dipole">      0.00000000       0.00000000      -0.00039632 </v>
    <i name="Tr[quadrupol]">  -1889.15231208 </i>
    <i name="Echarged">      0.00000000 </i>
    <i name="Edipol_quadrupol">      0.00000000 </i>
    <i name="Eion">      0.00000000 </i>
   </dipole>
   <energy>
    <i name="e_fr_energy">    310.28857169 </i>
    <i name="e_wo_entrp">    310.28857169 </i>
    <i name="e_0_energy">    310.28857169 </i>
   </energy>
  </scstep>
  <scstep>
   <time name="diag">    0.49    0.51</time>
   <time name="diis">    1.06    1.06</time>
   <time name="orth">    0.07    0.07</time>
   <time name="total">    1.62    1.64</time>
   <dipole>
    <v name="dipole">      0.00000000       0.00000000      -0.00039632 </v>
    <i name="Tr[quadrupol]">  -1889.15231208 </i>
    <i name="Echarged">      0.00000000 </i>
    <i name="Edipol_quadrupol">      0.00000000 </i>
    <i name="Eion">      0.00000000 </i>
   </dipole>
   <energy>
    <i name="e_fr_energy">    137.98771133 </i>
    <i name="e_wo_entrp">    137.98771133 </i>
    <i name="e_0_energy">    137.98771133 </i>
   </energy>
  </scstep>
  <scstep>
   <time name="diag">    0.49    0.52</time>
   <time name="diis">    1.05    1.05</time>
   <time name="orth">    0.07    0.07</time>
   <time name="total">    1.62    1.64</time>
   <dipole>
    <v name="dipole">      0.00000000       0.00000000      -0.00039632 </v>
    <i name="Tr[quadrupol]">  -1889.15231208 </i>
    <i name="Echarged">      0.00000000 </i>
    <i name="Edipol_quadrupol">      0.00000000 </i>
    <i name="Eion">      0.00000000 </i>
   </dipole>
   <energy>
    <i name="e_fr_energy">     21.54974044 </i>
    <i name="e_wo_entrp">     21.54974044 </i>
    <i name="e_0_energy">     21.54974044 </i>
   </energy>
  </scstep>
  <scstep>
   <time name="diag">    0.50    0.52</time>
   <time name="diis">    1.06    1.06</time>
   <time name="orth">    0.07    0.07</time>
   <time name="total">    1.64    1.66</time>
   <dipole>
    <v name="dipole">      0.00000000       0.00000000      -0.00039632 </v>
    <i name="Tr[quadrupol]">  -1889.15231208 </i>
    <i name="Echarged">      0.00000000 </i>
    <i name="Edipol_quadrupol">      0.00000000 </i>
    <i name="Eion">      0.00000000 </i>
   </dipole>
   <energy>
    <i name="e_fr_energy">    -41.56453415 </i>
    <i name="e_wo_entrp">    -41.56453415 </i>
    <i name="e_0_energy">    -41.56453415 </i>
   </energy>
  </scstep>
  <scstep>
   <time name="diag">    0.49    0.52</time>
   <time name="diis">    1.05    1.05</time>
   <time name="orth">    0.07    0.07</time>
   <time name="total">    1.62    1.64</time>
   <dipole>
    <v name="dipole">      0.00000000       0.00000000      -0.00039632 </v>
    <i name="Tr[quadrupol]">  -1889.15231208 </i>
    <i name="Echarged">      0.00000000 </i>
    <i name="Edipol_quadrupol">      0.00000000 </i>
    <i name="Eion">      0.00000000 </i>
   </dipole>
   <energy>
    <i name="e_fr_energy">    -67.31805140 </i>
    <i name="e_wo_entrp">    -67.31805140 </i>
    <i name="e_0_energy">    -67.31805140 </i>
   </energy>
  </scstep>
  <scstep>
   <time name="diag">    0.50    0.51</time>
   <time name="diis">    1.05    1.05</time>
   <time name="orth">    0.07    0.07</time>
   <time name="total">    1.62    1.64</time>
   <dipole>
    <v name="dipole">      0.00000000       0.00000000      -0.00039632 </v>
    <i name="Tr[quadrupol]">  -1889.15231208 </i>
    <i name="Echarged">      0.00000000 </i>
    <i name="Edipol_quadrupol">      0.00000000 </i>
    <i name="Eion">      0.00000000 </i>
   </dipole>
   <energy>
    <i name="e_fr_energy">    -74.71664923 </i>
    <i name="e_wo_entrp">    -74.71664923 </i>
    <i name="e_0_energy">    -74.71664923 </i>
   </energy>
  </scstep>
  <scstep>
   <time name="diag">    0.49    0.51</time>
   <time name="diis">    2.82    2.83</time>
   <time name="orth">    0.07    0.07</time>
   <time name="total">    3.39    3.42</time>
   <dipole>
    <v name="dipole">      0.00000000       0.00000000      -0.00039632 </v>
    <i name="Tr[quadrupol]">  -1889.15231208 </i>
    <i name="Echarged">      0.00000000 </i>
    <i name="Edipol_quadrupol">      0.00000000 </i>
    <i name="Eion">      0.00000000 </i>
   </dipole>
   <energy>
    <i name="e_fr_energy">    -77.57469767 </i>
    <i name="e_wo_entrp">    -77.57469767 </i>
    <i name="e_0_energy">    -77.57469767 </i>
   </energy>
  </scstep>
  <scstep>
   <time name="diag">    0.49    0.51</time>
   <time name="diis">    3.26    3.27</time>
   <time name="orth">    0.07    0.07</time>
   <time name="total">    3.82    3.85</time>
   <dipole>
    <v name="dipole">      0.00000000       0.00000000      -0.00039632 </v>
    <i name="Tr[quadrupol]">  -1889.15231208 </i>
    <i name="Echarged">      0.00000000 </i>
    <i name="Edipol_quadrupol">      0.00000000 </i>
    <i name="Eion">      0.00000000 </i>
   </dipole>
   <energy>
    <i name="e_fr_energy">    -78.11486267 </i>
    <i name="e_wo_entrp">    -78.11486267 </i>
    <i name="e_0_energy">    -78.11486267 </i>
   </energy>
  </scstep>
  <scstep>
   <time name="diag">    0.49    0.52</time>
   <time name="diis">    3.12    3.13</time>
   <time name="orth">    0.08    0.08</time>
   <time name="total">    3.70    3.72</time>
   <dipole>
    <v name="dipole">      0.00000000       0.00000000      -0.00039632 </v>
    <i name="Tr[quadrupol]">  -1889.15231208 </i>
    <i name="Echarged">      0.00000000 </i>
    <i name="Edipol_quadrupol">      0.00000000 </i>
    <i name="Eion">      0.00000000 </i>
   </dipole>
   <energy>
    <i name="e_fr_energy">    -78.13751980 </i>
    <i name="e_wo_entrp">    -78.13751980 </i>
    <i name="e_0_energy">    -78.13751980 </i>
   </energy>
  </scstep>
  <scstep>
   <time name="diag">    0.49    0.51</time>
   <time name="diis">    3.24    3.25</time>
   <time name="orth">    0.07    0.07</time>
   <time name="total">    3.94    3.97</time>
   <dipole>
    <v name="dipole">      0.00000000       0.00000000      -0.00039632 </v>
    <i name="Tr[quadrupol]">  -1889.15231208 </i>
    <i name="Echarged">      0.00000000 </i>
    <i name="Edipol_quadrupol">      0.00000000 </i>
    <i name="Eion">      0.00000000 </i>
   </dipole>
   <energy>
    <i name="e_fr_energy">    -78.14213921 </i>
    <i name="e_wo_entrp">    -78.14213921 </i>
    <i name="e_0_energy">    -78.14213921 </i>
   </energy>
  </scstep>
  <scstep>
   <time name="diag">    0.48    0.48</time>
   <time name="diis">    2.58    2.58</time>
   <time name="orth">    0.07    0.07</time>
   <time name="total">    8.50    8.53</time>
   <dipole>
    <v name="dipole">      0.00000000       0.00000000       0.53329710 </v>
    <i name="Tr[quadrupol]">  -1900.96936681 </i>
    <i name="Echarged">      0.00000000 </i>
    <i name="Edipol_quadrupol">      0.00000000 </i>
    <i name="Eion">      0.00000000 </i>
   </dipole>
   <energy>
    <i name="e_fr_energy">    -69.31652417 </i>
    <i name="e_wo_entrp">    -69.31652417 </i>
    <i name="e_0_energy">    -69.31652417 </i>
   </energy>
  </scstep>
  <scstep>
   <time name="diag">    0.57    0.57</time>
   <time name="diis">    3.22    3.22</time>
   <time name="orth">    0.07    0.07</time>
   <time name="total">    9.20    9.28</time>
   <dipole>
    <v name="dipole">      0.00000000       0.00000000      -2.22731699 </v>
    <i name="Tr[quadrupol]">  -1887.20747153 </i>
    <i name="Echarged">      0.00000000 </i>
    <i name="Edipol_quadrupol">      0.00000000 </i>
    <i name="Eion">      0.00000000 </i>
   </dipole>
   <energy>
    <i name="e_fr_energy">    -97.84462453 </i>
    <i name="e_wo_entrp">    -97.84462453 </i>
    <i name="e_0_energy">    -97.84462453 </i>
   </energy>
  </scstep>
  <scstep>
   <time name="diag">    0.48    0.48</time>
   <time name="diis">    2.68    2.69</time>
   <time name="orth">    0.07    0.07</time>
   <time name="total">    8.41    8.45</time>
   <dipole>
    <v name="dipole">      0.00000000       0.00000000      -0.00916043 </v>
    <i name="Tr[quadrupol]">  -1898.86737131 </i>
    <i name="Echarged">      0.00000000 </i>
    <i name="Edipol_quadrupol">      0.00000000 </i>
    <i name="Eion">      0.00000000 </i>
   </dipole>
   <energy>
    <i name="e_fr_energy">    -67.56485847 </i>
    <i name="e_wo_entrp">    -67.56485847 </i>
    <i name="e_0_energy">    -67.56485847 </i>
   </energy>
  </scstep>
  <scstep>
   <time name="diag">    0.48    0.48</time>
   <time name="diis">    3.04    3.05</time>
   <time name="orth">    0.07    0.07</time>
   <time name="total">    8.82    8.85</time>
   <dipole>
    <v name="dipole">      0.00000000       0.00000000      -0.16366936 </v>
    <i name="Tr[quadrupol]">  -1903.81811859 </i>
    <i name="Echarged">      0.00000000 </i>
    <i name="Edipol_quadrupol">      0.00000000 </i>
    <i name="Eion">      0.00000000 </i>
   </dipole>
   <energy>
    <i name="e_fr_energy">    -67.47090921 </i>
    <i name="e_wo_entrp">    -67.47090921 </i>
    <i name="e_0_energy">    -67.47090921 </i>
   </energy>
  </scstep>
  <scstep>
   <time name="diag">    0.48    0.48</time>
   <time name="diis">    2.46    2.46</time>
   <time name="orth">    0.07    0.07</time>
   <time name="total">    8.21    8.24</time>
   <dipole>
    <v name="dipole">      0.00000000       0.00000000      -0.39251637 </v>
    <i name="Tr[quadrupol]">  -1902.93764146 </i>
    <i name="Echarged">      0.00000000 </i>
    <i name="Edipol_quadrupol">      0.00000000 </i>
    <i name="Eion">      0.00000000 </i>
   </dipole>
   <energy>
    <i name="e_fr_energy">    -67.32771136 </i>
    <i name="e_wo_entrp">    -67.32771136 </i>
    <i name="e_0_energy">    -67.32771136 </i>
   </energy>
  </scstep>
  <scstep>
   <time name="diag">    0.48    0.48</time>
   <time name="diis">    3.03    3.03</time>
   <time name="orth">    0.07    0.07</time>
   <time name="total">    8.84    8.87</time>
   <dipole>
    <v name="dipole">      0.00000000       0.00000000      -0.41846665 </v>
    <i name="Tr[quadrupol]">  -1904.12764483 </i>
    <i name="Echarged">      0.00000000 </i>
    <i name="Edipol_quadrupol">      0.00000000 </i>
    <i name="Eion">      0.00000000 </i>
   </dipole>
   <energy>
    <i name="e_fr_energy">    -67.30038306 </i>
    <i name="e_wo_entrp">    -67.30038306 </i>
    <i name="e_0_energy">    -67.30038306 </i>
   </energy>
  </scstep>
  <scstep>
   <time name="diag">    0.48    0.48</time>
   <time name="diis">    2.53    2.53</time>
   <time name="orth">    0.07    0.07</time>
   <time name="total">    8.34    8.37</time>
   <dipole>
    <v name="dipole">      0.00000000       0.00000000      -0.47917844 </v>
    <i name="Tr[quadrupol]">  -1905.06237589 </i>
    <i name="Echarged">      0.00000000 </i>
    <i name="Edipol_quadrupol">      0.00000000 </i>
    <i name="Eion">      0.00000000 </i>
   </dipole>
   <energy>
    <i name="e_fr_energy">    -67.30094410 </i>
    <i name="e_wo_entrp">    -67.30094410 </i>
    <i name="e_0_energy">    -67.30094410 </i>
   </energy>
  </scstep>
  <scstep>
   <time name="diag">    0.48    0.48</time>
   <time name="diis">    2.86    2.86</time>
   <time name="orth">    0.07    0.07</time>
   <time name="total">    8.63    8.65</time>
   <dipole>
    <v name="dipole">      0.00000000       0.00000000      -0.49505881 </v>
    <i name="Tr[quadrupol]">  -1905.96693471 </i>
    <i name="Echarged">      0.00000000 </i>
    <i name="Edipol_quadrupol">      0.00000000 </i>
    <i name="Eion">      0.00000000 </i>
   </dipole>
   <energy>
    <i name="e_fr_energy">    -67.30016144 </i>
    <i name="e_wo_entrp">    -67.30016144 </i>
    <i name="e_0_energy">    -67.30016144 </i>
   </energy>
  </scstep>
  <scstep>
   <time name="diag">    0.48    0.48</time>
   <time name="diis">    2.91    2.91</time>
   <time name="orth">    0.07    0.07</time>
   <time name="total">    8.66    8.70</time>
   <dipole>
    <v name="dipole">      0.00000000       0.00000000      -0.49090208 </v>
    <i name="Tr[quadrupol]">  -1906.46561113 </i>
    <i name="Echarged">      0.00000000 </i>
    <i name="Edipol_quadrupol">      0.00000000 </i>
    <i name="Eion">      0.00000000 </i>
   </dipole>
   <energy>
    <i name="e_fr_energy">    -67.29949975 </i>
    <i name="e_wo_entrp">    -67.29949975 </i>
    <i name="e_0_energy">    -67.29949975 </i>
   </energy>
  </scstep>
  <scstep>
   <time name="diag">    0.48    0.48</time>
   <time name="diis">    2.61    2.62</time>
   <time name="orth">    0.07    0.07</time>
   <time name="total">    8.37    8.39</time>
   <dipole>
    <v name="dipole">      0.00000000       0.00000000      -0.49044647 </v>
    <i name="Tr[quadrupol]">  -1906.79392750 </i>
    <i name="Echarged">      0.00000000 </i>
    <i name="Edipol_quadrupol">      0.00000000 </i>
    <i name="Eion">      0.00000000 </i>
   </dipole>
   <energy>
    <i name="e_fr_energy">    -67.29373213 </i>
    <i name="e_wo_entrp">    -67.29373213 </i>
    <i name="e_0_energy">    -67.29373213 </i>
   </energy>
  </scstep>
  <scstep>
   <time name="diag">    0.48    0.48</time>
   <time name="diis">    2.24    2.25</time>
   <time name="orth">    0.07    0.07</time>
   <time name="total">    8.00    8.03</time>
   <dipole>
    <v name="dipole">      0.00000000       0.00000000      -0.48150862 </v>
    <i name="Tr[quadrupol]">  -1907.17570526 </i>
    <i name="Echarged">      0.00000000 </i>
    <i name="Edipol_quadrupol">      0.00000000 </i>
    <i name="Eion">      0.00000000 </i>
   </dipole>
   <energy>
    <i name="e_fr_energy">    -67.28615657 </i>
    <i name="e_wo_entrp">    -67.28615657 </i>
    <i name="e_0_energy">    -67.28615657 </i>
   </energy>
  </scstep>
  <scstep>
   <time name="diag">    0.48    0.48</time>
   <time name="diis">    2.12    2.12</time>
   <time name="orth">    0.07    0.07</time>
   <time name="total">    7.86    7.89</time>
   <dipole>
    <v name="dipole">      0.00000000       0.00000000      -0.47005228 </v>
    <i name="Tr[quadrupol]">  -1907.35462841 </i>
    <i name="Echarged">      0.00000000 </i>
    <i name="Edipol_quadrupol">      0.00000000 </i>
    <i name="Eion">      0.00000000 </i>
   </dipole>
   <energy>
    <i name="e_fr_energy">    -67.28762951 </i>
    <i name="e_wo_entrp">    -67.28762951 </i>
    <i name="e_0_energy">    -67.28762951 </i>
   </energy>
  </scstep>
  <scstep>
   <time name="diag">    0.49    0.49</time>
   <time name="diis">    2.08    2.08</time>
   <time name="orth">    0.07    0.07</time>
   <time name="total">    8.05    8.07</time>
   <dipole>
    <v name="dipole">      0.00000000       0.00000000      -0.46397955 </v>
    <i name="Tr[quadrupol]">  -1907.46340705 </i>
    <i name="Echarged">      0.00000000 </i>
    <i name="Edipol_quadrupol">      0.00000000 </i>
    <i name="Eion">      0.00000000 </i>
   </dipole>
   <energy>
    <i name="e_fr_energy">    -67.28848471 </i>
    <i name="e_wo_entrp">    -67.28848471 </i>
    <i name="e_0_energy">    -67.28848471 </i>
   </energy>
  </scstep>
  <scstep>
   <time name="diag">    0.48    0.48</time>
   <time name="diis">    1.95    1.95</time>
   <time name="orth">    0.07    0.07</time>
   <time name="total">    7.77    7.80</time>
   <dipole>
    <v name="dipole">      0.00000000       0.00000000      -0.45845029 </v>
    <i name="Tr[quadrupol]">  -1907.52786549 </i>
    <i name="Echarged">      0.00000000 </i>
    <i name="Edipol_quadrupol">      0.00000000 </i>
    <i name="Eion">      0.00000000 </i>
   </dipole>
   <energy>
    <i name="e_fr_energy">    -67.28825514 </i>
    <i name="e_wo_entrp">    -67.28825514 </i>
    <i name="e_0_energy">    -67.28825514 </i>
   </energy>
  </scstep>
  <scstep>
   <time name="diag">    0.48    0.48</time>
   <time name="diis">    1.91    1.91</time>
   <time name="orth">    0.07    0.07</time>
   <time name="total">    7.68    7.71</time>
   <dipole>
    <v name="dipole">      0.00000000       0.00000000      -0.45553923 </v>
    <i name="Tr[quadrupol]">  -1907.52088144 </i>
    <i name="Echarged">      0.00000000 </i>
    <i name="Edipol_quadrupol">      0.00000000 </i>
    <i name="Eion">      0.00000000 </i>
   </dipole>
   <energy>
    <i name="e_fr_energy">    -67.28811901 </i>
    <i name="e_wo_entrp">    -67.28811901 </i>
    <i name="e_0_energy">    -67.28811901 </i>
   </energy>
  </scstep>
  <scstep>
   <time name="diag">    0.49    0.49</time>
   <time name="diis">    1.69    1.69</time>
   <time name="orth">    0.07    0.07</time>
   <time name="total">    7.65    7.67</time>
   <dipole>
    <v name="dipole">      0.00000000       0.00000000      -0.45468034 </v>
    <i name="Tr[quadrupol]">  -1907.46108693 </i>
    <i name="Echarged">      0.00000000 </i>
    <i name="Edipol_quadrupol">      0.00000000 </i>
    <i name="Eion">      0.00000000 </i>
   </dipole>
   <energy>
    <i name="e_fr_energy">    -67.28811158 </i>
    <i name="e_wo_entrp">    -67.28811158 </i>
    <i name="e_0_energy">    -67.28811158 </i>
   </energy>
  </scstep>
  <scstep>
   <time name="diag">    0.48    0.48</time>
   <time name="diis">    1.81    1.82</time>
   <time name="orth">    0.07    0.07</time>
   <time name="total">    7.43    7.47</time>
   <dipole>
    <v name="dipole">      0.00000000       0.00000000      -0.45469165 </v>
    <i name="Tr[quadrupol]">  -1907.33935805 </i>
    <i name="Echarged">      0.00000000 </i>
    <i name="Edipol_quadrupol">      0.00000000 </i>
    <i name="Eion">      0.00000000 </i>
   </dipole>
   <energy>
    <i name="alphaZ">     61.08240566 </i>
    <i name="ewald">  13075.69536986 </i>
    <i name="hartreedc"> -16541.92426300 </i>
    <i name="XCdc">  -2035.13671795 </i>
    <i name="pawpsdc">   5959.63772874 </i>
    <i name="pawaedc">  -3545.83741794 </i>
    <i name="eentropy">      0.00000000 </i>
    <i name="bandstr">   -868.79336376 </i>
    <i name="atom">   3827.98814510 </i>
    <i name="e_fr_energy">    -67.28811329 </i>
    <i name="e_wo_entrp">    -67.28811329 </i>
    <i name="e_0_energy">    -67.28811329 </i>
   </energy>
  </scstep>
  <structure>
   <crystal>
    <varray name="basis" >
     <v>       9.55575275       0.00000000       0.00000000 </v>
     <v>      -4.77787638       8.27552464       0.00000000 </v>
     <v>       0.00000000       0.00000000      32.62509537 </v>
    </varray>
    <i name="volume">   2579.95558872 </i>
    <varray name="rec_basis" >
     <v>       0.10464900       0.06041913       0.00000000 </v>
     <v>       0.00000000       0.12083826       0.00000000 </v>
     <v>       0.00000000       0.00000000       0.03065125 </v>
    </varray>
   </crystal>
   <varray name="positions" >
    <v>       0.00000000       0.00000000       0.00000000 </v>
    <v>       0.99961605       0.99981248       0.15808146 </v>
    <v>       0.00398343       0.00448541       0.32981125 </v>
    <v>       0.00000001       0.33333336       0.00000000 </v>
    <v>       0.00066109       0.33275063       0.15745348 </v>
    <v>       0.99488707       0.33192248       0.30976263 </v>
    <v>       0.00000002       0.66666672       0.00000000 </v>
    <v>       0.99896600       0.66494442       0.15747603 </v>
    <v>       0.00716093       0.67069666       0.31321970 </v>
    <v>       0.33333334       0.00000000       0.00000000 </v>
    <v>       0.33410624       0.00019713       0.15709888 </v>
    <v>       0.32835224       0.99714961       0.30829571 </v>
    <v>       0.33333335       0.33333336       0.00000000 </v>
    <v>       0.33351315       0.33315347       0.15789394 </v>
    <v>       0.32574164       0.33683986       0.31493905 </v>
    <v>       0.33333336       0.66666672       0.00000000 </v>
    <v>       0.33347133       0.66641574       0.15835915 </v>
    <v>       0.32536731       0.65938283       0.33242269 </v>
    <v>       0.66666668       0.00000000       0.00000000 </v>
    <v>       0.66672788       0.99822140       0.15731430 </v>
    <v>       0.66574905       0.99621420       0.31281710 </v>
    <v>       0.66666668       0.33333336       0.00000000 </v>
    <v>       0.66642389       0.33355964       0.15857227 </v>
    <v>       0.66266719       0.31584472       0.32257910 </v>
    <v>       0.66666670       0.66666672       0.00000000 </v>
    <v>       0.66814773       0.66624545       0.15876379 </v>
    <v>       0.68016932       0.67310899       0.31766234 </v>
    <v>       0.11111113       0.22222222       0.07982145 </v>
    <v>       0.11162185       0.21831064       0.23651331 </v>
    <v>       0.11111114       0.55555561       0.07982145 </v>
    <v>       0.11648734       0.55780002       0.23591229 </v>
    <v>       0.11111116       0.88888894       0.07982145 </v>
    <v>       0.10890632       0.88626789       0.23370403 </v>
    <v>       0.44444450       0.22222222       0.07982145 </v>
    <v>       0.44710372       0.22639188       0.23637723 </v>
    <v>       0.44444450       0.55555561       0.07982145 </v>
    <v>       0.44709128       0.55866772       0.23723701 </v>
    <v>       0.44444451       0.88888894       0.07982145 </v>
    <v>       0.44436676       0.88508600       0.23533976 </v>
    <v>       0.77777779       0.22222222       0.07982145 </v>
    <v>       0.77431466       0.21886396       0.23438686 </v>
    <v>       0.77777781       0.55555561       0.07982145 </v>
    <v>       0.77581385       0.54986867       0.23888496 </v>
    <v>       0.77777784       0.88888894       0.07982145 </v>
    <v>       0.78192703       0.88779865       0.23784953 </v>
    <v>       0.99442559       0.01174858       0.39588216 </v>
    <v>       0.27817663       0.97162336       0.41185979 </v>
    <v>       0.89621589       0.24958047       0.41138546 </v>
    <v>       0.63647992       0.32531076       0.38806094 </v>
    <v>       0.61699613       0.59335222       0.37869166 </v>
    <v>       0.30050768       0.69277426       0.39740257 </v>
    <v>       0.97184683       0.09324606       0.40805417 </v>
    <v>       0.08252145       0.01119499       0.41135560 </v>
    <v>       0.38225121       0.07329960       0.41177374 </v>
    <v>       0.24657097       0.95742868       0.38219150 </v>
    <v>       0.99465123       0.35523092       0.40832636 </v>
    <v>       0.86218310       0.21723293       0.38222385 </v>
    <v>       0.63864653       0.43032683       0.39281531 </v>
    <v>       0.72306799       0.32378936       0.40405897 </v>
    <v>       0.64176521       0.68208886       0.39784982 </v>
    <v>       0.47809875       0.54588321       0.36015113 </v>
    <v>       0.30000880       0.79174249       0.40690579 </v>
    <v>       0.36059634       0.66792473       0.41747824 </v>
   </varray>
  </structure>
  <varray name="forces" >
   <v>       0.01061615      -0.02671183       0.01502252 </v>
   <v>       0.01336042      -0.02118329      -0.00821498 </v>
   <v>       0.00401359      -0.01189998      -0.00334053 </v>
   <v>      -0.03339669      -0.01385368      -0.01386946 </v>
   <v>       0.00253762      -0.00236387      -0.00910303 </v>
   <v>      -0.00529839      -0.01554969       0.01219654 </v>
   <v>       0.00794948       0.03515040      -0.02988439 </v>
   <v>      -0.00663682       0.02656153       0.00456514 </v>
   <v>       0.00331705       0.02923071       0.01318983 </v>
   <v>      -0.02749751      -0.01722899      -0.02760401 </v>
   <v>      -0.00917932      -0.01287081       0.00802591 </v>
   <v>      -0.02740350      -0.00768597       0.00577156 </v>
   <v>      -0.00139342      -0.00638453      -0.01596121 </v>
   <v>       0.00533139      -0.01444713      -0.01246961 </v>
   <v>       0.00377132       0.01603771       0.00746969 </v>
   <v>      -0.01301436       0.00598321      -0.00433597 </v>
   <v>      -0.01811924       0.02554592       0.00262618 </v>
   <v>       0.01504143      -0.00873253       0.00057029 </v>
   <v>       0.01052542       0.02935535      -0.03024349 </v>
   <v>      -0.00702912      -0.00671133      -0.00123847 </v>
   <v>       0.02348359       0.01701100       0.01615535 </v>
   <v>       0.03416765      -0.02186605       0.01030115 </v>
   <v>      -0.00026689       0.00359881       0.00295310 </v>
   <v>       0.01467461       0.00191852      -0.00858161 </v>
   <v>      -0.00350065       0.02760671      -0.03557092 </v>
   <v>       0.01905688       0.01634060      -0.00550404 </v>
   <v>      -0.03396698      -0.01696961       0.06178545 </v>
   <v>       0.01236616      -0.03396488       0.02768379 </v>
   <v>      -0.00269621      -0.03171189      -0.00341481 </v>
   <v>       0.03810247       0.00765642       0.02449384 </v>
   <v>       0.01112326       0.02699788       0.00060077 </v>
   <v>      -0.05992595       0.00630335      -0.04252501 </v>
   <v>      -0.01474901      -0.00141642       0.01454176 </v>
   <v>       0.01262996       0.04024915       0.03927702 </v>
   <v>       0.02934674       0.01193688      -0.00690157 </v>
   <v>      -0.01330408       0.00551423       0.01229458 </v>
   <v>      -0.00411566       0.01553729      -0.02118887 </v>
   <v>       0.01295309      -0.05282024       0.03472019 </v>
   <v>      -0.00743913      -0.02605274      -0.00570195 </v>
   <v>      -0.01783020       0.02072290      -0.03062218 </v>
   <v>      -0.02682186       0.01505405       0.00152374 </v>
   <v>      -0.00403080      -0.02186267       0.06139984 </v>
   <v>       0.01514184      -0.03193173      -0.02689837 </v>
   <v>       0.05930849      -0.00858961       0.03971193 </v>
   <v>       0.02519254       0.01169442      -0.01695592 </v>
   <v>      -0.00475566       0.00828431       0.01282689 </v>
   <v>       0.00820871       0.00772901       0.04343733 </v>
   <v>       0.00261488       0.00451638       0.03918077 </v>
   <v>      -0.01286024      -0.00905710       0.00797053 </v>
   <v>       0.06064222       0.03829921       0.01806658 </v>
   <v>       0.01169965      -0.00159481       0.00460008 </v>
   <v>      -0.00408635       0.00615176      -0.00582988 </v>
   <v>       0.00585620       0.00362880      -0.00599612 </v>
   <v>       0.00476819       0.00392705      -0.00866984 </v>
   <v>      -0.00663987      -0.01135091      -0.02354246 </v>
   <v>       0.00198349       0.00430547      -0.00916650 </v>
   <v>      -0.00606699      -0.00554168      -0.01479937 </v>
   <v>      -0.01734438       0.00152156      -0.01293814 </v>
   <v>      -0.00526066       0.01068531      -0.01460252 </v>
   <v>       0.01829787       0.03426447       0.01109208 </v>
   <v>      -0.11494641      -0.08176208      -0.09261218 </v>
   <v>      -0.00339685       0.00007609      -0.01044860 </v>
   <v>       0.01489083       0.00271961       0.00468158 </v>
  </varray>
  <varray name="stress" >
   <v>      -3.73203896      -0.35766817      -0.14790502 </v>
   <v>      -0.35766796      -5.16855014       0.15669197 </v>
   <v>      -0.14790497       0.15669164      -0.10498850 </v>
  </varray>
  <energy>
   <i name="e_fr_energy">    -67.28811329 </i>
   <i name="e_wo_entrp">    -67.28811329 </i>
   <i name="e_0_energy">      0.00000000 </i>
  </energy>
  <time name="totalsc">  194.88  196.53</time>
  <eigenvalues>
   <array>
    <dimension dim="1">band</dimension>
    <dimension dim="2">kpoint</dimension>
    <dimension dim="3">spin</dimension>
    <field>eigene</field>
    <field>occ</field>
    <set>
     <set comment="spin 1">
      <set comment="kpoint 1">
       <r>  -23.8732    1.0000 </r>
       <r>  -23.6420    1.0000 </r>
       <r>  -23.4553    1.0000 </r>
       <r>  -23.3797    1.0000 </r>
       <r>  -23.2403    1.0000 </r>
       <r>  -22.0205    1.0000 </r>
       <r>  -11.9176    1.0000 </r>
       <r>  -11.7459    1.0000 </r>
       <r>  -11.6301    1.0000 </r>
       <r>  -11.0806    1.0000 </r>
       <r>  -10.9454    1.0000 </r>
       <r>  -10.0025    1.0000 </r>
       <r>   -8.8400    1.0000 </r>
       <r>   -8.5286    1.0000 </r>
       <r>   -8.3347    1.0000 </r>
       <r>   -7.9118    1.0000 </r>
       <r>   -7.7917    1.0000 </r>
       <r>   -7.3426    1.0000 </r>
       <r>   -7.2389    1.0000 </r>
       <r>   -6.7587    1.0000 </r>
       <r>   -6.4028    1.0000 </r>
       <r>   -6.2360    1.0000 </r>
       <r>   -6.1912    1.0000 </r>
       <r>   -6.0226    1.0000 </r>
       <r>   -5.8734    1.0000 </r>
       <r>   -5.7738    1.0000 </r>
       <r>   -5.7073    1.0000 </r>
       <r>   -5.1994    1.0000 </r>
       <r>   -5.1952    1.0000 </r>
       <r>   -5.1833    1.0000 </r>
       <r>   -5.1588    1.0000 </r>
       <r>   -5.1500    1.0000 </r>
       <r>   -5.1451    1.0000 </r>
       <r>   -4.6619    1.0000 </r>
       <r>   -4.6455    1.0000 </r>
       <r>   -4.6404    1.0000 </r>
       <r>   -4.6248    1.0000 </r>
       <r>   -4.5592    1.0000 </r>
       <r>   -4.5317    1.0000 </r>
       <r>   -4.4990    1.0000 </r>
       <r>   -3.7763    1.0000 </r>
       <r>   -3.7693    1.0000 </r>
       <r>   -3.7421    1.0000 </r>
       <r>   -3.6701    1.0000 </r>
       <r>   -3.6253    1.0000 </r>
       <r>   -3.6076    1.0000 </r>
       <r>   -3.1286    1.0000 </r>
       <r>   -2.6450    1.0000 </r>
       <r>   -2.6236    1.0000 </r>
       <r>   -2.5603    1.0000 </r>
       <r>   -2.5301    1.0000 </r>
       <r>   -2.4934    1.0000 </r>
       <r>   -2.4438    1.0000 </r>
       <r>   -1.7373    1.0000 </r>
       <r>   -1.2936    1.0000 </r>
       <r>   -1.2068    1.0000 </r>
       <r>   -1.1063    1.0000 </r>
       <r>   -1.0641    1.0000 </r>
       <r>   -1.0404    1.0000 </r>
       <r>   -1.0227    1.0000 </r>
       <r>   -1.0120    1.0000 </r>
       <r>   -1.0072    1.0000 </r>
       <r>   -0.9687    1.0000 </r>
       <r>   -0.9631    1.0000 </r>
       <r>   -0.9536    1.0000 </r>
       <r>   -0.8861    1.0000 </r>
       <r>   -0.6812    1.0000 </r>
       <r>   -0.5909    1.0000 </r>
       <r>   -0.5291    0.0000 </r>
       <r>   -0.4810    0.0000 </r>
       <r>   -0.4155    0.0000 </r>
       <r>   -0.3448    0.0000 </r>
       <r>   -0.2062    0.0000 </r>
       <r>   -0.0505    0.0000 </r>
       <r>   -0.0308    0.0000 </r>
       <r>    0.1306    0.0000 </r>
       <r>    0.2020    0.0000 </r>
       <r>    0.2968    0.0000 </r>
       <r>    0.3316    0.0000 </r>
       <r>    0.3667    0.0000 </r>
       <r>    0.3871    0.0000 </r>
       <r>    0.5510    0.0000 </r>
       <r>    0.6356    0.0000 </r>
       <r>    0.7690    0.0000 </r>
       <r>    1.0586    0.0000 </r>
       <r>    1.0831    0.0000 </r>
       <r>    1.0925    0.0000 </r>
       <r>    1.0980    0.0000 </r>
       <r>    1.1096    0.0000 </r>
       <r>    1.1363    0.0000 </r>
       <r>    1.2000    0.0000 </r>
       <r>    1.2650    0.0000 </r>
       <r>    1.3761    0.0000 </r>
       <r>    1.3926    0.0000 </r>
       <r>    1.5421    0.0000 </r>
       <r>    1.6276    0.0000 </r>
       <r>    1.6395    0.0000 </r>
       <r>    1.6513    0.0000 </r>
       <r>    1.6575    0.0000 </r>
       <r>    1.6750    0.0000 </r>
       <r>    1.6946    0.0000 </r>
       <r>    1.8642    0.0000 </r>
      </set>
      <set comment="kpoint 2">
       <r>  -23.8729    1.0000 </r>
       <r>  -23.6390    1.0000 </r>
       <r>  -23.4755    1.0000 </r>
       <r>  -23.3544    1.0000 </r>
       <r>  -23.2486    1.0000 </r>
       <r>  -22.0205    1.0000 </r>
       <r>  -11.9177    1.0000 </r>
       <r>  -11.7449    1.0000 </r>
       <r>  -11.6305    1.0000 </r>
       <r>  -11.0787    1.0000 </r>
       <r>  -10.9479    1.0000 </r>
       <r>  -10.0021    1.0000 </r>
       <r>   -8.8393    1.0000 </r>
       <r>   -8.5291    1.0000 </r>
       <r>   -8.3382    1.0000 </r>
       <r>   -7.8890    1.0000 </r>
       <r>   -7.8097    1.0000 </r>
       <r>   -7.2432    1.0000 </r>
       <r>   -7.0985    1.0000 </r>
       <r>   -6.5378    1.0000 </r>
       <r>   -6.4109    1.0000 </r>
       <r>   -6.3516    1.0000 </r>
       <r>   -6.2755    1.0000 </r>
       <r>   -6.1549    1.0000 </r>
       <r>   -6.0167    1.0000 </r>
       <r>   -5.8672    1.0000 </r>
       <r>   -5.7612    1.0000 </r>
       <r>   -5.7353    1.0000 </r>
       <r>   -5.6575    1.0000 </r>
       <r>   -5.6325    1.0000 </r>
       <r>   -5.5392    1.0000 </r>
       <r>   -5.0981    1.0000 </r>
       <r>   -5.0199    1.0000 </r>
       <r>   -4.8590    1.0000 </r>
       <r>   -4.3985    1.0000 </r>
       <r>   -4.2412    1.0000 </r>
       <r>   -4.2124    1.0000 </r>
       <r>   -4.2024    1.0000 </r>
       <r>   -4.1237    1.0000 </r>
       <r>   -3.7147    1.0000 </r>
       <r>   -3.6733    1.0000 </r>
       <r>   -3.6047    1.0000 </r>
       <r>   -3.5184    1.0000 </r>
       <r>   -3.0604    1.0000 </r>
       <r>   -2.9955    1.0000 </r>
       <r>   -2.9512    1.0000 </r>
       <r>   -2.8886    1.0000 </r>
       <r>   -2.8339    1.0000 </r>
       <r>   -2.8138    1.0000 </r>
       <r>   -2.8002    1.0000 </r>
       <r>   -2.7356    1.0000 </r>
       <r>   -2.3092    1.0000 </r>
       <r>   -2.2389    1.0000 </r>
       <r>   -2.1853    1.0000 </r>
       <r>   -2.1078    1.0000 </r>
       <r>   -1.7457    1.0000 </r>
       <r>   -1.6412    1.0000 </r>
       <r>   -1.6036    1.0000 </r>
       <r>   -1.5242    1.0000 </r>
       <r>   -1.4709    1.0000 </r>
       <r>   -1.4312    1.0000 </r>
       <r>   -1.4206    1.0000 </r>
       <r>   -1.3774    1.0000 </r>
       <r>   -1.2122    1.0000 </r>
       <r>   -0.8421    1.0000 </r>
       <r>   -0.7927    1.0000 </r>
       <r>   -0.7831    1.0000 </r>
       <r>   -0.6313    1.0000 </r>
       <r>   -0.5546    0.4789 </r>
       <r>   -0.5364    0.0718 </r>
       <r>   -0.4891   -0.0379 </r>
       <r>   -0.3917   -0.0035 </r>
       <r>   -0.2349    0.0000 </r>
       <r>   -0.0016    0.0000 </r>
       <r>    0.0495    0.0000 </r>
       <r>    0.0839    0.0000 </r>
       <r>    0.1243    0.0000 </r>
       <r>    0.2011    0.0000 </r>
       <r>    0.2832    0.0000 </r>
       <r>    0.3640    0.0000 </r>
       <r>    0.5500    0.0000 </r>
       <r>    0.5606    0.0000 </r>
       <r>    0.6155    0.0000 </r>
       <r>    0.6723    0.0000 </r>
       <r>    0.6961    0.0000 </r>
       <r>    0.8385    0.0000 </r>
       <r>    0.8910    0.0000 </r>
       <r>    0.9536    0.0000 </r>
       <r>    1.0139    0.0000 </r>
       <r>    1.1253    0.0000 </r>
       <r>    1.1919    0.0000 </r>
       <r>    1.3154    0.0000 </r>
       <r>    1.3734    0.0000 </r>
       <r>    1.3899    0.0000 </r>
       <r>    1.4287    0.0000 </r>
       <r>    1.5044    0.0000 </r>
       <r>    1.5314    0.0000 </r>
       <r>    1.6159    0.0000 </r>
       <r>    1.6745    0.0000 </r>
       <r>    1.7609    0.0000 </r>
       <r>    1.8041    0.0000 </r>
       <r>    2.1062    0.0000 </r>
      </set>
      <set comment="kpoint 3">
       <r>  -23.8725    1.0000 </r>
       <r>  -23.6437    1.0000 </r>
       <r>  -23.4543    1.0000 </r>
       <r>  -23.3795    1.0000 </r>
       <r>  -23.2404    1.0000 </r>
       <r>  -22.0206    1.0000 </r>
       <r>  -11.9178    1.0000 </r>
       <r>  -11.7435    1.0000 </r>
       <r>  -11.6300    1.0000 </r>
       <r>  -11.0894    1.0000 </r>
       <r>  -10.9384    1.0000 </r>
       <r>  -10.0027    1.0000 </r>
       <r>   -8.8341    1.0000 </r>
       <r>   -8.5291    1.0000 </r>
       <r>   -8.3483    1.0000 </r>
       <r>   -7.8871    1.0000 </r>
       <r>   -7.8026    1.0000 </r>
       <r>   -7.2510    1.0000 </r>
       <r>   -7.1008    1.0000 </r>
       <r>   -6.5368    1.0000 </r>
       <r>   -6.4031    1.0000 </r>
       <r>   -6.3562    1.0000 </r>
       <r>   -6.2646    1.0000 </r>
       <r>   -6.1805    1.0000 </r>
       <r>   -6.0031    1.0000 </r>
       <r>   -5.8554    1.0000 </r>
       <r>   -5.7748    1.0000 </r>
       <r>   -5.7404    1.0000 </r>
       <r>   -5.6574    1.0000 </r>
       <r>   -5.6339    1.0000 </r>
       <r>   -5.5309    1.0000 </r>
       <r>   -5.0917    1.0000 </r>
       <r>   -5.0247    1.0000 </r>
       <r>   -4.8588    1.0000 </r>
       <r>   -4.4007    1.0000 </r>
       <r>   -4.2405    1.0000 </r>
       <r>   -4.2142    1.0000 </r>
       <r>   -4.1907    1.0000 </r>
       <r>   -4.1278    1.0000 </r>
       <r>   -3.7121    1.0000 </r>
       <r>   -3.6790    1.0000 </r>
       <r>   -3.6035    1.0000 </r>
       <r>   -3.5190    1.0000 </r>
       <r>   -3.0497    1.0000 </r>
       <r>   -2.9930    1.0000 </r>
       <r>   -2.9487    1.0000 </r>
       <r>   -2.8788    1.0000 </r>
       <r>   -2.8395    1.0000 </r>
       <r>   -2.8164    1.0000 </r>
       <r>   -2.8049    1.0000 </r>
       <r>   -2.7288    1.0000 </r>
       <r>   -2.3066    1.0000 </r>
       <r>   -2.2523    1.0000 </r>
       <r>   -2.1868    1.0000 </r>
       <r>   -2.1140    1.0000 </r>
       <r>   -1.7299    1.0000 </r>
       <r>   -1.6520    1.0000 </r>
       <r>   -1.5925    1.0000 </r>
       <r>   -1.5387    1.0000 </r>
       <r>   -1.4714    1.0000 </r>
       <r>   -1.4484    1.0000 </r>
       <r>   -1.4110    1.0000 </r>
       <r>   -1.3480    1.0000 </r>
       <r>   -1.2251    1.0000 </r>
       <r>   -0.8388    1.0000 </r>
       <r>   -0.7912    1.0000 </r>
       <r>   -0.7876    1.0000 </r>
       <r>   -0.6265    1.0000 </r>
       <r>   -0.5581    0.4922 </r>
       <r>   -0.5383    0.0842 </r>
       <r>   -0.5064   -0.0252 </r>
       <r>   -0.3904   -0.0035 </r>
       <r>   -0.2461    0.0000 </r>
       <r>    0.0149    0.0000 </r>
       <r>    0.0554    0.0000 </r>
       <r>    0.0793    0.0000 </r>
       <r>    0.1479    0.0000 </r>
       <r>    0.1837    0.0000 </r>
       <r>    0.2694    0.0000 </r>
       <r>    0.3779    0.0000 </r>
       <r>    0.5436    0.0000 </r>
       <r>    0.5648    0.0000 </r>
       <r>    0.6132    0.0000 </r>
       <r>    0.6611    0.0000 </r>
       <r>    0.6909    0.0000 </r>
       <r>    0.8068    0.0000 </r>
       <r>    0.8818    0.0000 </r>
       <r>    0.9806    0.0000 </r>
       <r>    1.0403    0.0000 </r>
       <r>    1.1104    0.0000 </r>
       <r>    1.1602    0.0000 </r>
       <r>    1.3441    0.0000 </r>
       <r>    1.3578    0.0000 </r>
       <r>    1.4204    0.0000 </r>
       <r>    1.4526    0.0000 </r>
       <r>    1.5073    0.0000 </r>
       <r>    1.5460    0.0000 </r>
       <r>    1.6232    0.0000 </r>
       <r>    1.6992    0.0000 </r>
       <r>    1.7645    0.0000 </r>
       <r>    1.8707    0.0000 </r>
       <r>    2.2285    0.0000 </r>
      </set>
      <set comment="kpoint 4">
       <r>  -23.8724    1.0000 </r>
       <r>  -23.6403    1.0000 </r>
       <r>  -23.4758    1.0000 </r>
       <r>  -23.3528    1.0000 </r>
       <r>  -23.2493    1.0000 </r>
       <r>  -22.0206    1.0000 </r>
       <r>  -11.9176    1.0000 </r>
       <r>  -11.7430    1.0000 </r>
       <r>  -11.6309    1.0000 </r>
       <r>  -11.0842    1.0000 </r>
       <r>  -10.9436    1.0000 </r>
       <r>  -10.0023    1.0000 </r>
       <r>   -8.8343    1.0000 </r>
       <r>   -8.5319    1.0000 </r>
       <r>   -8.3469    1.0000 </r>
       <r>   -7.8672    1.0000 </r>
       <r>   -7.8199    1.0000 </r>
       <r>   -7.2530    1.0000 </r>
       <r>   -6.6281    1.0000 </r>
       <r>   -6.6172    1.0000 </r>
       <r>   -6.6139    1.0000 </r>
       <r>   -6.4035    1.0000 </r>
       <r>   -6.2731    1.0000 </r>
       <r>   -6.2198    1.0000 </r>
       <r>   -6.0955    1.0000 </r>
       <r>   -6.0173    1.0000 </r>
       <r>   -5.9918    1.0000 </r>
       <r>   -5.8689    1.0000 </r>
       <r>   -5.8341    1.0000 </r>
       <r>   -5.7560    1.0000 </r>
       <r>   -5.1307    1.0000 </r>
       <r>   -5.1164    1.0000 </r>
       <r>   -5.0303    1.0000 </r>
       <r>   -4.4656    1.0000 </r>
       <r>   -4.4584    1.0000 </r>
       <r>   -4.4554    1.0000 </r>
       <r>   -3.9705    1.0000 </r>
       <r>   -3.9538    1.0000 </r>
       <r>   -3.9189    1.0000 </r>
       <r>   -3.8787    1.0000 </r>
       <r>   -3.8665    1.0000 </r>
       <r>   -3.8393    1.0000 </r>
       <r>   -3.0403    1.0000 </r>
       <r>   -3.0102    1.0000 </r>
       <r>   -2.9963    1.0000 </r>
       <r>   -2.4848    1.0000 </r>
       <r>   -2.4289    1.0000 </r>
       <r>   -2.4032    1.0000 </r>
       <r>   -2.3861    1.0000 </r>
       <r>   -2.3768    1.0000 </r>
       <r>   -2.3641    1.0000 </r>
       <r>   -2.3496    1.0000 </r>
       <r>   -2.3446    1.0000 </r>
       <r>   -2.3368    1.0000 </r>
       <r>   -1.9391    1.0000 </r>
       <r>   -1.9119    1.0000 </r>
       <r>   -1.8943    1.0000 </r>
       <r>   -1.8765    1.0000 </r>
       <r>   -1.8540    1.0000 </r>
       <r>   -1.8325    1.0000 </r>
       <r>   -1.7684    1.0000 </r>
       <r>   -1.7556    1.0000 </r>
       <r>   -1.7459    1.0000 </r>
       <r>   -1.3156    1.0000 </r>
       <r>   -1.2458    1.0000 </r>
       <r>   -1.2367    1.0000 </r>
       <r>   -1.0549    1.0000 </r>
       <r>   -1.0141    1.0000 </r>
       <r>   -0.9696    1.4450 </r>
       <r>   -0.6130    1.0608 </r>
       <r>   -0.5957    0.3914 </r>
       <r>   -0.5664    0.0112 </r>
       <r>   -0.4807    0.0000 </r>
       <r>   -0.3976    0.0000 </r>
       <r>   -0.3517    0.0000 </r>
       <r>    0.1162    0.0000 </r>
       <r>    0.1916    0.0000 </r>
       <r>    0.2128    0.0000 </r>
       <r>    0.2568    0.0000 </r>
       <r>    0.2904    0.0000 </r>
       <r>    0.4106    0.0000 </r>
       <r>    0.5122    0.0000 </r>
       <r>    0.7295    0.0000 </r>
       <r>    0.7626    0.0000 </r>
       <r>    0.9356    0.0000 </r>
       <r>    1.0293    0.0000 </r>
       <r>    1.0520    0.0000 </r>
       <r>    1.2510    0.0000 </r>
       <r>    1.5081    0.0000 </r>
       <r>    1.5415    0.0000 </r>
       <r>    1.5738    0.0000 </r>
       <r>    1.6423    0.0000 </r>
       <r>    1.6660    0.0000 </r>
       <r>    1.6869    0.0000 </r>
       <r>    1.7217    0.0000 </r>
       <r>    1.7375    0.0000 </r>
       <r>    1.7422    0.0000 </r>
       <r>    1.7600    0.0000 </r>
       <r>    1.7969    0.0000 </r>
       <r>    1.8490    0.0000 </r>
       <r>    1.9428    0.0000 </r>
       <r>    2.2392    0.0000 </r>
      </set>
      <set comment="kpoint 5">
       <r>  -23.8724    1.0000 </r>
       <r>  -23.6404    1.0000 </r>
       <r>  -23.4747    1.0000 </r>
       <r>  -23.3542    1.0000 </r>
       <r>  -23.2487    1.0000 </r>
       <r>  -22.0206    1.0000 </r>
       <r>  -11.9177    1.0000 </r>
       <r>  -11.7436    1.0000 </r>
       <r>  -11.6301    1.0000 </r>
       <r>  -11.0857    1.0000 </r>
       <r>  -10.9424    1.0000 </r>
       <r>  -10.0025    1.0000 </r>
       <r>   -8.8350    1.0000 </r>
       <r>   -8.5331    1.0000 </r>
       <r>   -8.3429    1.0000 </r>
       <r>   -7.8885    1.0000 </r>
       <r>   -7.8012    1.0000 </r>
       <r>   -7.2573    1.0000 </r>
       <r>   -7.0957    1.0000 </r>
       <r>   -6.5327    1.0000 </r>
       <r>   -6.3872    1.0000 </r>
       <r>   -6.3564    1.0000 </r>
       <r>   -6.2838    1.0000 </r>
       <r>   -6.1775    1.0000 </r>
       <r>   -5.9950    1.0000 </r>
[...]
       <r>   -21.9566     0.0000    12.0000 </r>
       <r>   -21.8562     0.0000    12.0000 </r>
       <r>   -21.7558     0.0000    12.0000 </r>
       <r>   -21.6553     0.0000    12.0000 </r>
       <r>   -21.5549     0.0000    12.0000 </r>
       <r>   -21.4545     0.0000    12.0000 </r>
       <r>   -21.3541     0.0000    12.0000 </r>
       <r>   -21.2536     0.0000    12.0000 </r>
       <r>   -21.1532     0.0000    12.0000 </r>
       <r>   -21.0528     0.0000    12.0000 </r>
       <r>   -20.9524     0.0000    12.0000 </r>
       <r>   -20.8519     0.0000    12.0000 </r>
       <r>   -20.7515     0.0000    12.0000 </r>
       <r>   -20.6511     0.0000    12.0000 </r>
       <r>   -20.5507     0.0000    12.0000 </r>
       <r>   -20.4502     0.0000    12.0000 </r>
       <r>   -20.3498     0.0000    12.0000 </r>
       <r>   -20.2494     0.0000    12.0000 </r>
       <r>   -20.1490     0.0000    12.0000 </r>
       <r>   -20.0485     0.0000    12.0000 </r>
       <r>   -19.9481     0.0000    12.0000 </r>
       <r>   -19.8477     0.0000    12.0000 </r>
       <r>   -19.7473     0.0000    12.0000 </r>
       <r>   -19.6468     0.0000    12.0000 </r>
       <r>   -19.5464     0.0000    12.0000 </r>
       <r>   -19.4460     0.0000    12.0000 </r>
       <r>   -19.3456     0.0000    12.0000 </r>
       <r>   -19.2451     0.0000    12.0000 </r>
       <r>   -19.1447     0.0000    12.0000 </r>
       <r>   -19.0443     0.0000    12.0000 </r>
       <r>   -18.9439     0.0000    12.0000 </r>
       <r>   -18.8434     0.0000    12.0000 </r>
       <r>   -18.7430     0.0000    12.0000 </r>
       <r>   -18.6426     0.0000    12.0000 </r>
       <r>   -18.5422     0.0000    12.0000 </r>
       <r>   -18.4417     0.0000    12.0000 </r>
       <r>   -18.3413     0.0000    12.0000 </r>
       <r>   -18.2409     0.0000    12.0000 </r>
       <r>   -18.1405     0.0000    12.0000 </r>
       <r>   -18.0400     0.0000    12.0000 </r>
       <r>   -17.9396     0.0000    12.0000 </r>
       <r>   -17.8392     0.0000    12.0000 </r>
       <r>   -17.7388     0.0000    12.0000 </r>
       <r>   -17.6383     0.0000    12.0000 </r>
       <r>   -17.5379     0.0000    12.0000 </r>
       <r>   -17.4375     0.0000    12.0000 </r>
       <r>   -17.3371     0.0000    12.0000 </r>
       <r>   -17.2367     0.0000    12.0000 </r>
       <r>   -17.1362     0.0000    12.0000 </r>
       <r>   -17.0358     0.0000    12.0000 </r>
       <r>   -16.9354     0.0000    12.0000 </r>
       <r>   -16.8350     0.0000    12.0000 </r>
       <r>   -16.7345     0.0000    12.0000 </r>
       <r>   -16.6341     0.0000    12.0000 </r>
       <r>   -16.5337     0.0000    12.0000 </r>
       <r>   -16.4333     0.0000    12.0000 </r>
       <r>   -16.3328     0.0000    12.0000 </r>
       <r>   -16.2324     0.0000    12.0000 </r>
       <r>   -16.1320     0.0000    12.0000 </r>
       <r>   -16.0316     0.0000    12.0000 </r>
       <r>   -15.9311     0.0000    12.0000 </r>
       <r>   -15.8307     0.0000    12.0000 </r>
       <r>   -15.7303     0.0000    12.0000 </r>
       <r>   -15.6299     0.0000    12.0000 </r>
       <r>   -15.5294     0.0000    12.0000 </r>
       <r>   -15.4290     0.0000    12.0000 </r>
       <r>   -15.3286     0.0000    12.0000 </r>
       <r>   -15.2282     0.0000    12.0000 </r>
       <r>   -15.1277     0.0000    12.0000 </r>
       <r>   -15.0273     0.0000    12.0000 </r>
       <r>   -14.9269     0.0000    12.0000 </r>
       <r>   -14.8265     0.0000    12.0000 </r>
       <r>   -14.7260     0.0000    12.0000 </r>
       <r>   -14.6256     0.0000    12.0000 </r>
       <r>   -14.5252     0.0000    12.0000 </r>
       <r>   -14.4248     0.0000    12.0000 </r>
       <r>   -14.3243     0.0000    12.0000 </r>
       <r>   -14.2239     0.0000    12.0000 </r>
       <r>   -14.1235     0.0000    12.0000 </r>
       <r>   -14.0231     0.0000    12.0000 </r>
       <r>   -13.9226     0.0000    12.0000 </r>
       <r>   -13.8222     0.0000    12.0000 </r>
       <r>   -13.7218     0.0000    12.0000 </r>
       <r>   -13.6214     0.0000    12.0000 </r>
       <r>   -13.5209     0.0000    12.0000 </r>
       <r>   -13.4205     0.0000    12.0000 </r>
       <r>   -13.3201     0.0000    12.0000 </r>
       <r>   -13.2197     0.0000    12.0000 </r>
       <r>   -13.1192     0.0000    12.0000 </r>
       <r>   -13.0188     0.0000    12.0000 </r>
       <r>   -12.9184     0.0000    12.0000 </r>
       <r>   -12.8180     0.0000    12.0000 </r>
       <r>   -12.7175     0.0000    12.0000 </r>
       <r>   -12.6171     0.0000    12.0000 </r>
       <r>   -12.5167     0.0000    12.0000 </r>
       <r>   -12.4163     0.0000    12.0000 </r>
       <r>   -12.3158     0.0000    12.0000 </r>
       <r>   -12.2154     0.0000    12.0000 </r>
       <r>   -12.1150     0.0000    12.0000 </r>
       <r>   -12.0146     0.0000    12.0000 </r>
       <r>   -11.9142     0.0000    14.0000 </r>
       <r>   -11.8137     0.0000    14.0000 </r>
       <r>   -11.7133     0.0000    16.0000 </r>
       <r>   -11.6129     0.0000    18.0000 </r>
       <r>   -11.5125     0.0000    18.0000 </r>
       <r>   -11.4120     0.0000    18.0000 </r>
       <r>   -11.3116     0.0000    18.0000 </r>
       <r>   -11.2112     0.0000    18.0000 </r>
       <r>   -11.1108     0.0000    18.0000 </r>
       <r>   -11.0103     0.0000    20.0000 </r>
       <r>   -10.9099     0.0000    22.0000 </r>
       <r>   -10.8095     0.0000    22.0000 </r>
       <r>   -10.7091     0.0000    22.0000 </r>
       <r>   -10.6086     0.0000    22.0000 </r>
       <r>   -10.5082     0.0000    22.0000 </r>
       <r>   -10.4078     0.0000    22.0000 </r>
       <r>   -10.3074     0.0000    22.0000 </r>
       <r>   -10.2069     0.0000    22.0000 </r>
       <r>   -10.1065     0.0000    22.0000 </r>
       <r>   -10.0061     0.0000    22.0000 </r>
       <r>    -9.9057     0.0000    24.0000 </r>
       <r>    -9.8052     0.0000    24.0000 </r>
       <r>    -9.7048     0.0000    24.0000 </r>
       <r>    -9.6044     0.0000    24.0000 </r>
       <r>    -9.5040     0.0000    24.0000 </r>
       <r>    -9.4035     0.0000    24.0000 </r>
       <r>    -9.3031     0.0000    24.0000 </r>
       <r>    -9.2027     0.0000    24.0000 </r>
       <r>    -9.1023     0.0000    24.0000 </r>
       <r>    -9.0018     0.0000    24.0000 </r>
       <r>    -8.9014     0.0000    24.0000 </r>
       <r>    -8.8010     0.0000    26.0000 </r>
       <r>    -8.7006     0.0000    26.0000 </r>
       <r>    -8.6001     0.0000    26.0000 </r>
       <r>    -8.4997     0.0000    28.0000 </r>
       <r>    -8.3993     0.0000    28.0000 </r>
       <r>    -8.2989     0.0000    30.0000 </r>
       <r>    -8.1984     0.0000    30.0000 </r>
       <r>    -8.0980     0.0000    30.0000 </r>
       <r>    -7.9976     0.0000    30.0000 </r>
       <r>    -7.8972    35.1154    30.2575 </r>
       <r>    -7.7967    46.1065    33.8841 </r>
       <r>    -7.6963     0.0000    34.0000 </r>
       <r>    -7.5959     0.0000    34.0000 </r>
       <r>    -7.4955     0.0000    34.0000 </r>
       <r>    -7.3950     0.0000    34.0000 </r>
       <r>    -7.2946     7.5873    34.1821 </r>
       <r>    -7.1942     3.0158    36.0674 </r>
       <r>    -7.0938     5.6164    36.6922 </r>
       <r>    -6.9933     4.4052    37.1955 </r>
       <r>    -6.8929     3.1941    37.5770 </r>
       <r>    -6.7925     1.9829    37.8370 </r>
       <r>    -6.6921     2.5589    38.0348 </r>
       <r>    -6.5917    16.0746    38.5201 </r>
       <r>    -6.4912     7.2111    40.4422 </r>
       <r>    -6.3908    27.7538    42.0632 </r>
       <r>    -6.2904     5.1464    43.8601 </r>
       <r>    -6.1900    37.2293    46.5548 </r>
       <r>    -6.0895     6.0870    47.8691 </r>
       <r>    -5.9891    12.1357    49.5233 </r>
       <r>    -5.8887    20.5949    51.1668 </r>
       <r>    -5.7883    30.9877    53.7476 </r>
       <r>    -5.6878    26.8379    56.7783 </r>
       <r>    -5.5874     6.8733    58.6401 </r>
       <r>    -5.4870    14.0764    59.6924 </r>
       <r>    -5.3866     9.7344    60.8880 </r>
       <r>    -5.2861     5.3924    61.6475 </r>
       <r>    -5.1857     1.1721    61.9718 </r>
       <r>    -5.0853     5.3664    64.1606 </r>
       <r>    -4.9849     0.0000    66.0000 </r>
       <r>    -4.8844     0.0000    66.0000 </r>
       <r>    -4.7840     9.6952    66.8689 </r>
       <r>    -4.6836     4.5065    67.5820 </r>
       <r>    -4.5832     4.2054    67.9441 </r>
       <r>    -4.4827     7.5198    68.5119 </r>
       <r>    -4.3823    11.5053    70.9257 </r>
       <r>    -4.2819    20.9409    72.5549 </r>
       <r>    -4.1815    23.2047    74.4369 </r>
       <r>    -4.0810    21.8590    76.7174 </r>
       <r>    -3.9806     6.6856    78.1507 </r>
       <r>    -3.8802     1.3348    78.4130 </r>
       <r>    -3.7798    20.5065    79.3995 </r>
       <r>    -3.6793    30.8878    82.8148 </r>
       <r>    -3.5789     4.9179    84.3748 </r>
       <r>    -3.4785     6.6643    85.0067 </r>
       <r>    -3.3781     6.4886    85.6671 </r>
       <r>    -3.2776     6.3129    86.3099 </r>
       <r>    -3.1772     6.1372    86.9350 </r>
       <r>    -3.0768     7.1233    87.5727 </r>
       <r>    -2.9764     5.3604    90.8747 </r>
       <r>    -2.8759    10.5528    91.7757 </r>
       <r>    -2.7755    39.8392    94.2196 </r>
       <r>    -2.6751    34.2549    98.1061 </r>
       <r>    -2.5747    16.9338   100.5924 </r>
       <r>    -2.4742     7.1934   101.7136 </r>
       <r>    -2.3738     7.2238   102.3603 </r>
       <r>    -2.2734    33.1752   105.4407 </r>
       <r>    -2.1730     2.8661   107.3756 </r>
       <r>    -2.0725    15.5927   108.2369 </r>
       <r>    -1.9721     5.8266   109.3124 </r>
       <r>    -1.8717     6.6253   109.6894 </r>
       <r>    -1.7713    25.2951   111.2490 </r>
       <r>    -1.6708    33.0914   114.0496 </r>
       <r>    -1.5704    33.8766   117.4182 </r>
       <r>    -1.4700    30.4935   120.7895 </r>
       <r>    -1.3696    17.3795   123.1964 </r>
       <r>    -1.2692    23.2699   124.8854 </r>
       <r>    -1.1687    13.0849   127.1215 </r>
       <r>    -1.0683     9.6328   128.2568 </r>
       <r>    -0.9679    12.3449   129.2825 </r>
       <r>    -0.8675    34.6210   131.4509 </r>
       <r>    -0.7670    18.1637   134.4020 </r>
       <r>    -0.6666    10.8647   135.7817 </r>
       <r>    -0.5662    35.5027   137.8987 </r>
       <r>    -0.4658    23.7113   142.1104 </r>
       <r>    -0.3653    16.5910   144.1661 </r>
       <r>    -0.2649    12.9338   145.1895 </r>
       <r>    -0.1645     7.8854   146.8469 </r>
       <r>    -0.0641    15.1891   147.8594 </r>
       <r>     0.0364    20.0106   149.7703 </r>
       <r>     0.1368    34.1448   152.3547 </r>
       <r>     0.2372     7.9929   155.7621 </r>
       <r>     0.3376    27.4481   158.6478 </r>
       <r>     0.4381     6.5411   160.1208 </r>
       <r>     0.5385    51.0609   162.0849 </r>
       <r>     0.6389    20.1807   165.0860 </r>
       <r>     0.7393    22.5579   168.4237 </r>
       <r>     0.8398    22.8447   169.8928 </r>
       <r>     0.9402    29.9133   172.2227 </r>
       <r>     1.0406    34.1711   175.3614 </r>
       <r>     1.1410    13.9905   177.8253 </r>
       <r>     1.2415    13.7038   179.9478 </r>
       <r>     1.3419    15.2867   181.9636 </r>
       <r>     1.4423    31.1305   185.5482 </r>
       <r>     1.5427    52.6776   189.8074 </r>
       <r>     1.6432    39.3208   194.4321 </r>
       <r>     1.7436    35.7194   198.2901 </r>
       <r>     1.8440    16.3694   200.8871 </r>
       <r>     1.9444     1.0333   202.0414 </r>
       <r>     2.0449     2.3267   202.2102 </r>
       <r>     2.1453     6.8600   202.6374 </r>
       <r>     2.2457    24.7567   203.7695 </r>
       <r>     2.3461     0.0000   204.0000 </r>
       <r>     2.4466     0.0000   204.0000 </r>
       <r>     2.5470     0.0000   204.0000 </r>
       <r>     2.6474     0.0000   204.0000 </r>
       <r>     2.7478     0.0000   204.0000 </r>
       <r>     2.8483     0.0000   204.0000 </r>
       <r>     2.9487     0.0000   204.0000 </r>
       <r>     3.0491     0.0000   204.0000 </r>
       <r>     3.1495     0.0000   204.0000 </r>
       <r>     3.2500     0.0000   204.0000 </r>
       <r>     3.3504     0.0000   204.0000 </r>
       <r>     3.4508     0.0000   204.0000 </r>
       <r>     3.5512     0.0000   204.0000 </r>
       <r>     3.6517     0.0000   204.0000 </r>
       <r>     3.7521     0.0000   204.0000 </r>
       <r>     3.8525     0.0000   204.0000 </r>
       <r>     3.9529     0.0000   204.0000 </r>
       <r>     4.0533     0.0000   204.0000 </r>
       <r>     4.1538     0.0000   204.0000 </r>
       <r>     4.2542     0.0000   204.0000 </r>
      </set>
     </set>
    </array>
   </total>
  </dos>
 </calculation>
 <structure name="finalpos" >
  <crystal>
   <varray name="basis" >
    <v>       9.55575275       0.00000000       0.00000000 </v>
    <v>      -4.77787638       8.27552464       0.00000000 </v>
    <v>       0.00000000       0.00000000      32.62509537 </v>
   </varray>
   <i name="volume">   2579.95558872 </i>
   <varray name="rec_basis" >
    <v>       0.10464900       0.06041913       0.00000000 </v>
    <v>       0.00000000       0.12083826       0.00000000 </v>
    <v>       0.00000000       0.00000000       0.03065125 </v>
   </varray>
  </crystal>
  <varray name="positions" >
   <v>       0.00000000       0.00000000       0.00000000 </v>
   <v>       0.99961605       0.99981248       0.15808146 </v>
   <v>       0.00398343       0.00448541       0.32981125 </v>
   <v>       0.00000001       0.33333336       0.00000000 </v>
   <v>       0.00066109       0.33275063       0.15745348 </v>
   <v>       0.99488707       0.33192248       0.30976263 </v>
   <v>       0.00000002       0.66666672       0.00000000 </v>
   <v>       0.99896600       0.66494442       0.15747603 </v>
   <v>       0.00716093       0.67069666       0.31321970 </v>
   <v>       0.33333334       0.00000000       0.00000000 </v>
   <v>       0.33410624       0.00019713       0.15709888 </v>
   <v>       0.32835224       0.99714961       0.30829571 </v>
   <v>       0.33333335       0.33333336       0.00000000 </v>
   <v>       0.33351315       0.33315347       0.15789394 </v>
   <v>       0.32574164       0.33683986       0.31493905 </v>
   <v>       0.33333336       0.66666672       0.00000000 </v>
   <v>       0.33347133       0.66641574       0.15835915 </v>
   <v>       0.32536731       0.65938283       0.33242269 </v>
   <v>       0.66666668       0.00000000       0.00000000 </v>
   <v>       0.66672788       0.99822140       0.15731430 </v>
   <v>       0.66574905       0.99621420       0.31281710 </v>
   <v>       0.66666668       0.33333336       0.00000000 </v>
   <v>       0.66642389       0.33355964       0.15857227 </v>
   <v>       0.66266719       0.31584472       0.32257910 </v>
   <v>       0.66666670       0.66666672       0.00000000 </v>
   <v>       0.66814773       0.66624545       0.15876379 </v>
   <v>       0.68016932       0.67310899       0.31766234 </v>
   <v>       0.11111113       0.22222222       0.07982145 </v>
   <v>       0.11162185       0.21831064       0.23651331 </v>
   <v>       0.11111114       0.55555561       0.07982145 </v>
   <v>       0.11648734       0.55780002       0.23591229 </v>
   <v>       0.11111116       0.88888894       0.07982145 </v>
   <v>       0.10890632       0.88626789       0.23370403 </v>
   <v>       0.44444450       0.22222222       0.07982145 </v>
   <v>       0.44710372       0.22639188       0.23637723 </v>
   <v>       0.44444450       0.55555561       0.07982145 </v>
   <v>       0.44709128       0.55866772       0.23723701 </v>
   <v>       0.44444451       0.88888894       0.07982145 </v>
   <v>       0.44436676       0.88508600       0.23533976 </v>
   <v>       0.77777779       0.22222222       0.07982145 </v>
   <v>       0.77431466       0.21886396       0.23438686 </v>
   <v>       0.77777781       0.55555561       0.07982145 </v>
   <v>       0.77581385       0.54986867       0.23888496 </v>
   <v>       0.77777784       0.88888894       0.07982145 </v>
   <v>       0.78192703       0.88779865       0.23784953 </v>
   <v>       0.99442559       0.01174858       0.39588216 </v>
   <v>       0.27817663       0.97162336       0.41185979 </v>
   <v>       0.89621589       0.24958047       0.41138546 </v>
   <v>       0.63647992       0.32531076       0.38806094 </v>
   <v>       0.61699613       0.59335222       0.37869166 </v>
   <v>       0.30050768       0.69277426       0.39740257 </v>
   <v>       0.97184683       0.09324606       0.40805417 </v>
   <v>       0.08252145       0.01119499       0.41135560 </v>
   <v>       0.38225121       0.07329960       0.41177374 </v>
   <v>       0.24657097       0.95742868       0.38219150 </v>
   <v>       0.99465123       0.35523092       0.40832636 </v>
   <v>       0.86218310       0.21723293       0.38222385 </v>
   <v>       0.63864653       0.43032683       0.39281531 </v>
   <v>       0.72306799       0.32378936       0.40405897 </v>
   <v>       0.64176521       0.68208886       0.39784982 </v>
   <v>       0.47809875       0.54588321       0.36015113 </v>
   <v>       0.30000880       0.79174249       0.40690579 </v>
   <v>       0.36059634       0.66792473       0.41747824 </v>
  </varray>
  <varray name="selective"  type="logical" >
   <v type="logical" >  F  F  F </v>
   <v type="logical" >  T  T  T </v>
   <v type="logical" >  T  T  T </v>
   <v type="logical" >  F  F  F </v>
   <v type="logical" >  T  T  T </v>
   <v type="logical" >  T  T  T </v>
   <v type="logical" >  F  F  F </v>
   <v type="logical" >  T  T  T </v>
   <v type="logical" >  T  T  T </v>
   <v type="logical" >  F  F  F </v>
   <v type="logical" >  T  T  T </v>
   <v type="logical" >  T  T  T </v>
   <v type="logical" >  F  F  F </v>
   <v type="logical" >  T  T  T </v>
   <v type="logical" >  T  T  T </v>
   <v type="logical" >  F  F  F </v>
   <v type="logical" >  T  T  T </v>
   <v type="logical" >  T  T  T </v>
   <v type="logical" >  F  F  F </v>
   <v type="logical" >  T  T  T </v>
   <v type="logical" >  T  T  T </v>
   <v type="logical" >  F  F  F </v>
   <v type="logical" >  T  T  T </v>
   <v type="logical" >  T  T  T </v>
   <v type="logical" >  F  F  F </v>
   <v type="logical" >  T  T  T </v>
   <v type="logical" >  T  T  T </v>
   <v type="logical" >  F  F  F </v>
   <v type="logical" >  T  T  T </v>
   <v type="logical" >  F  F  F </v>
   <v type="logical" >  T  T  T </v>
   <v type="logical" >  F  F  F </v>
   <v type="logical" >  T  T  T </v>
   <v type="logical" >  F  F  F </v>
   <v type="logical" >  T  T  T </v>
   <v type="logical" >  F  F  F </v>
   <v type="logical" >  T  T  T </v>
   <v type="logical" >  F  F  F </v>
   <v type="logical" >  T  T  T </v>
   <v type="logical" >  F  F  F </v>
   <v type="logical" >  T  T  T </v>
   <v type="logical" >  F  F  F </v>
   <v type="logical" >  T  T  T </v>
   <v type="logical" >  F  F  F </v>
   <v type="logical" >  T  T  T </v>
   <v type="logical" >  T  T  T </v>
   <v type="logical" >  T  T  T </v>
   <v type="logical" >  T  T  T </v>
   <v type="logical" >  T  T  T </v>
   <v type="logical" >  T  T  T </v>
   <v type="logical" >  T  T  T </v>
   <v type="logical" >  T  T  T </v>
   <v type="logical" >  T  T  T </v>
   <v type="logical" >  T  T  T </v>
   <v type="logical" >  T  T  T </v>
   <v type="logical" >  T  T  T </v>
   <v type="logical" >  T  T  T </v>
   <v type="logical" >  T  T  T </v>
   <v type="logical" >  T  T  T </v>
   <v type="logical" >  T  T  T </v>
   <v type="logical" >  T  T  T </v>
   <v type="logical" >  T  T  T </v>
   <v type="logical" >  T  T  T </v>
  </varray>
  <nose>
   <v>      -3.00000000       0.00000000       0.00010000       0.00010000 </v>
  </nose>
 </structure>
</modeling>
