Mg_slab_in_a_box                        
           1
     9.555753    0.000000    0.000000
    -4.777876    8.275525    0.000000
     0.000000    0.000000   32.625095
   Mg   O    H 
  45   6  12
Direct configuration=     1
   0.00000000  0.00000000  0.00000000
   0.99961605  0.99981248  0.15808146
   0.00398343  0.00448541  0.32981125
   0.00000001  0.33333336  0.00000000
   0.00066109  0.33275063  0.15745348
   0.99488707  0.33192248  0.30976263
   0.00000002  0.66666672  0.00000000
   0.99896600  0.66494442  0.15747603
   0.00716093  0.67069666  0.31321970
   0.33333334  0.00000000  0.00000000
   0.33410624  0.00019713  0.15709888
   0.32835224  0.99714961  0.30829571
   0.33333335  0.33333336  0.00000000
   0.33351315  0.33315347  0.15789394
   0.32574164  0.33683986  0.31493905
   0.33333336  0.66666672  0.00000000
   0.33347133  0.66641574  0.15835915
   0.32536731  0.65938283  0.33242269
   0.66666668  0.00000000  0.00000000
   0.66672788  0.99822140  0.15731430
   0.66574905  0.99621420  0.31281710
   0.66666668  0.33333336  0.00000000
   0.66642389  0.33355964  0.15857227
   0.66266719  0.31584472  0.32257910
   0.66666670  0.66666672  0.00000000
   0.66814773  0.66624545  0.15876379
   0.68016932  0.67310899  0.31766234
   0.11111113  0.22222222  0.07982145
   0.11162185  0.21831064  0.23651331
   0.11111114  0.55555561  0.07982145
   0.11648734  0.55780002  0.23591229
   0.11111116  0.88888894  0.07982145
   0.10890632  0.88626789  0.23370403
   0.44444450  0.22222222  0.07982145
   0.44710372  0.22639188  0.23637723
   0.44444450  0.55555561  0.07982145
   0.44709128  0.55866772  0.23723701
   0.44444451  0.88888894  0.07982145
   0.44436676  0.88508600  0.23533976
   0.77777779  0.22222222  0.07982145
   0.77431466  0.21886396  0.23438686
   0.77777781  0.55555561  0.07982145
   0.77581385  0.54986867  0.23888496
   0.77777784  0.88888894  0.07982145
   0.78192703  0.88779865  0.23784953
   0.99442559  0.01174858  0.39588216
   0.27817663  0.97162336  0.41185979
   0.89621589  0.24958047  0.41138546
   0.63647992  0.32531076  0.38806094
   0.61699613  0.59335222  0.37869166
   0.30050768  0.69277426  0.39740257
   0.97184683  0.09324606  0.40805417
   0.08252145  0.01119499  0.41135560
   0.38225121  0.07329960  0.41177374
   0.24657097  0.95742868  0.38219150
   0.99465123  0.35523092  0.40832636
   0.86218310  0.21723293  0.38222385
   0.63864653  0.43032683  0.39281531
   0.72306799  0.32378936  0.40405897
   0.64176521  0.68208886  0.39784982
   0.47809875  0.54588321  0.36015113
   0.30000880  0.79174249  0.40690579
   0.36059634  0.66792473  0.41747824
