  63  63   0   0
  0.4095168E+02  0.9555753E-09  0.9555753E-09  0.3262510E-08  0.5000000E-15
  1.000000000000000E-004
  CAR 
 Mg_slab_in_a_box                        
      4.20221796    -25.83608909  301     -0.66516011      1.00000000
    -25.836  0.0000E+00  0.0000E+00
    -25.736  0.0000E+00  0.0000E+00
    -25.636  0.0000E+00  0.0000E+00
    -25.536  0.0000E+00  0.0000E+00
    -25.436  0.0000E+00  0.0000E+00
    -25.335  0.0000E+00  0.0000E+00
    -25.235  0.0000E+00  0.0000E+00
    -25.135  0.0000E+00  0.0000E+00
    -25.035  0.0000E+00  0.0000E+00
    -24.935  0.0000E+00  0.0000E+00
    -24.835  0.0000E+00  0.0000E+00
    -24.735  0.0000E+00  0.0000E+00
    -24.635  0.0000E+00  0.0000E+00
    -24.534  0.0000E+00  0.0000E+00
    -24.434  0.0000E+00  0.0000E+00
    -24.334  0.0000E+00  0.0000E+00
    -24.234  0.0000E+00  0.0000E+00
    -24.134  0.0000E+00  0.0000E+00
    -24.034  0.0000E+00  0.0000E+00
    -23.934  0.0000E+00  0.0000E+00
    -23.834  0.3531E+02  0.4509E-01
    -23.733  0.0000E+00  0.4000E+01
    -23.633  0.0000E+00  0.6000E+01
    -23.533  0.0000E+00  0.6000E+01
    -23.433  0.0000E+00  0.8000E+01
    -23.333  0.0000E+00  0.1000E+02
    -23.233  0.0000E+00  0.1200E+02
    -23.133  0.0000E+00  0.1200E+02
    -23.033  0.0000E+00  0.1200E+02
    -22.932  0.0000E+00  0.1200E+02
    -22.832  0.0000E+00  0.1200E+02
    -22.732  0.0000E+00  0.1200E+02
    -22.632  0.0000E+00  0.1200E+02
    -22.532  0.0000E+00  0.1200E+02
    -22.432  0.0000E+00  0.1200E+02
    -22.332  0.0000E+00  0.1200E+02
    -22.231  0.0000E+00  0.1200E+02
    -22.131  0.0000E+00  0.1200E+02
    -22.031  0.0000E+00  0.1200E+02
    -21.931  0.0000E+00  0.1200E+02
    -21.831  0.0000E+00  0.1200E+02
    -21.731  0.0000E+00  0.1200E+02
    -21.631  0.0000E+00  0.1200E+02
    -21.531  0.0000E+00  0.1200E+02
    -21.430  0.0000E+00  0.1200E+02
    -21.330  0.0000E+00  0.1200E+02
    -21.230  0.0000E+00  0.1200E+02
    -21.130  0.0000E+00  0.1200E+02
    -21.030  0.0000E+00  0.1200E+02
    -20.930  0.0000E+00  0.1200E+02
    -20.830  0.0000E+00  0.1200E+02
    -20.730  0.0000E+00  0.1200E+02
    -20.629  0.0000E+00  0.1200E+02
    -20.529  0.0000E+00  0.1200E+02
    -20.429  0.0000E+00  0.1200E+02
    -20.329  0.0000E+00  0.1200E+02
    -20.229  0.0000E+00  0.1200E+02
    -20.129  0.0000E+00  0.1200E+02
    -20.029  0.0000E+00  0.1200E+02
    -19.929  0.0000E+00  0.1200E+02
    -19.828  0.0000E+00  0.1200E+02
    -19.728  0.0000E+00  0.1200E+02
    -19.628  0.0000E+00  0.1200E+02
    -19.528  0.0000E+00  0.1200E+02
    -19.428  0.0000E+00  0.1200E+02
    -19.328  0.0000E+00  0.1200E+02
    -19.228  0.0000E+00  0.1200E+02
    -19.128  0.0000E+00  0.1200E+02
    -19.027  0.0000E+00  0.1200E+02
    -18.927  0.0000E+00  0.1200E+02
    -18.827  0.0000E+00  0.1200E+02
    -18.727  0.0000E+00  0.1200E+02
    -18.627  0.0000E+00  0.1200E+02
    -18.527  0.0000E+00  0.1200E+02
    -18.427  0.0000E+00  0.1200E+02
    -18.327  0.0000E+00  0.1200E+02
    -18.226  0.0000E+00  0.1200E+02
    -18.126  0.0000E+00  0.1200E+02
    -18.026  0.0000E+00  0.1200E+02
    -17.926  0.0000E+00  0.1200E+02
    -17.826  0.0000E+00  0.1200E+02
    -17.726  0.0000E+00  0.1200E+02
    -17.626  0.0000E+00  0.1200E+02
    -17.525  0.0000E+00  0.1200E+02
    -17.425  0.0000E+00  0.1200E+02
    -17.325  0.0000E+00  0.1200E+02
    -17.225  0.0000E+00  0.1200E+02
    -17.125  0.0000E+00  0.1200E+02
    -17.025  0.0000E+00  0.1200E+02
    -16.925  0.0000E+00  0.1200E+02
    -16.825  0.0000E+00  0.1200E+02
    -16.724  0.0000E+00  0.1200E+02
    -16.624  0.0000E+00  0.1200E+02
    -16.524  0.0000E+00  0.1200E+02
    -16.424  0.0000E+00  0.1200E+02
    -16.324  0.0000E+00  0.1200E+02
    -16.224  0.0000E+00  0.1200E+02
    -16.124  0.0000E+00  0.1200E+02
    -16.024  0.0000E+00  0.1200E+02
    -15.923  0.0000E+00  0.1200E+02
    -15.823  0.0000E+00  0.1200E+02
    -15.723  0.0000E+00  0.1200E+02
    -15.623  0.0000E+00  0.1200E+02
    -15.523  0.0000E+00  0.1200E+02
    -15.423  0.0000E+00  0.1200E+02
    -15.323  0.0000E+00  0.1200E+02
    -15.223  0.0000E+00  0.1200E+02
    -15.122  0.0000E+00  0.1200E+02
    -15.022  0.0000E+00  0.1200E+02
    -14.922  0.0000E+00  0.1200E+02
    -14.822  0.0000E+00  0.1200E+02
    -14.722  0.0000E+00  0.1200E+02
    -14.622  0.0000E+00  0.1200E+02
    -14.522  0.0000E+00  0.1200E+02
    -14.422  0.0000E+00  0.1200E+02
    -14.321  0.0000E+00  0.1200E+02
    -14.221  0.0000E+00  0.1200E+02
    -14.121  0.0000E+00  0.1200E+02
    -14.021  0.0000E+00  0.1200E+02
    -13.921  0.0000E+00  0.1200E+02
    -13.821  0.0000E+00  0.1200E+02
    -13.721  0.0000E+00  0.1200E+02
    -13.621  0.0000E+00  0.1200E+02
    -13.520  0.0000E+00  0.1200E+02
    -13.420  0.0000E+00  0.1200E+02
    -13.320  0.0000E+00  0.1200E+02
    -13.220  0.0000E+00  0.1200E+02
    -13.120  0.0000E+00  0.1200E+02
    -13.020  0.0000E+00  0.1200E+02
    -12.920  0.0000E+00  0.1200E+02
    -12.819  0.0000E+00  0.1200E+02
    -12.719  0.0000E+00  0.1200E+02
    -12.619  0.0000E+00  0.1200E+02
    -12.519  0.0000E+00  0.1200E+02
    -12.419  0.0000E+00  0.1200E+02
    -12.319  0.0000E+00  0.1200E+02
    -12.219  0.0000E+00  0.1200E+02
    -12.119  0.0000E+00  0.1200E+02
    -12.018  0.0000E+00  0.1200E+02
    -11.918  0.0000E+00  0.1200E+02
    -11.818  0.0000E+00  0.1600E+02
    -11.718  0.0000E+00  0.1800E+02
    -11.618  0.0000E+00  0.1800E+02
    -11.518  0.0000E+00  0.1800E+02
    -11.418  0.0000E+00  0.1800E+02
    -11.318  0.0000E+00  0.1800E+02
    -11.217  0.1067E+03  0.1833E+02
    -11.117  0.1244E+03  0.2050E+02
    -11.017  0.0000E+00  0.2200E+02
    -10.917  0.0000E+00  0.2400E+02
    -10.817  0.0000E+00  0.2400E+02
    -10.717  0.0000E+00  0.2400E+02
    -10.617  0.0000E+00  0.2400E+02
    -10.517  0.0000E+00  0.2400E+02
    -10.416  0.0000E+00  0.2400E+02
    -10.316  0.0000E+00  0.2400E+02
    -10.216  0.0000E+00  0.2400E+02
    -10.116  0.0000E+00  0.2400E+02
    -10.016  0.0000E+00  0.2400E+02
     -9.916  0.0000E+00  0.2400E+02
     -9.816  0.0000E+00  0.2400E+02
     -9.716  0.0000E+00  0.2400E+02
     -9.615  0.0000E+00  0.2400E+02
     -9.515  0.0000E+00  0.2400E+02
     -9.415  0.0000E+00  0.2400E+02
     -9.315  0.0000E+00  0.2400E+02
     -9.215  0.0000E+00  0.2400E+02
     -9.115  0.0000E+00  0.2400E+02
     -9.015  0.0000E+00  0.2400E+02
     -8.915  0.0000E+00  0.2400E+02
     -8.814  0.0000E+00  0.2400E+02
     -8.714  0.0000E+00  0.2400E+02
     -8.614  0.0000E+00  0.2800E+02
     -8.514  0.0000E+00  0.3000E+02
     -8.414  0.0000E+00  0.3000E+02
     -8.314  0.0000E+00  0.3000E+02
     -8.214  0.0000E+00  0.3000E+02
     -8.113  0.0000E+00  0.3000E+02
     -8.013  0.0000E+00  0.3000E+02
     -7.913  0.2192E+03  0.3335E+02
     -7.813  0.0000E+00  0.3400E+02
     -7.713  0.0000E+00  0.3600E+02
     -7.613  0.0000E+00  0.3600E+02
     -7.513  0.0000E+00  0.3600E+02
     -7.413  0.8838E+00  0.3602E+02
     -7.312  0.3159E+01  0.3622E+02
     -7.212  0.5433E+01  0.3665E+02
     -7.112  0.4450E+01  0.3715E+02
     -7.012  0.3279E+01  0.3754E+02
     -6.912  0.2108E+01  0.3781E+02
     -6.812  0.1933E+01  0.3798E+02
     -6.712  0.9161E+01  0.3830E+02
     -6.612  0.9343E+01  0.4053E+02
     -6.511  0.2299E+02  0.4230E+02
     -6.411  0.9746E+01  0.4402E+02
     -6.311  0.3454E+01  0.4736E+02
     -6.211  0.2516E+01  0.4766E+02
     -6.111  0.1578E+01  0.4787E+02
     -6.011  0.2181E+02  0.4894E+02
     -5.911  0.1531E+03  0.5263E+02
     -5.811  0.3232E+02  0.5551E+02
     -5.710  0.7555E+01  0.5844E+02
     -5.610  0.1346E+02  0.5971E+02
     -5.510  0.9467E+01  0.6085E+02
     -5.410  0.5471E+01  0.6160E+02
     -5.310  0.1474E+01  0.6195E+02
     -5.210  0.1759E+03  0.6340E+02
     -5.110  0.0000E+00  0.6600E+02
     -5.010  0.0000E+00  0.6600E+02
     -4.909  0.9178E+01  0.6684E+02
     -4.809  0.4814E+01  0.6754E+02
     -4.709  0.3608E+01  0.6787E+02
     -4.609  0.7663E+01  0.6843E+02
     -4.509  0.9962E+01  0.7076E+02
     -4.409  0.1922E+02  0.7222E+02
     -4.309  0.2410E+02  0.7411E+02
     -4.209  0.2564E+02  0.7642E+02
     -4.108  0.8419E+01  0.7812E+02
     -4.008  0.1357E+01  0.7840E+02
     -3.908  0.1840E+02  0.7911E+02
     -3.808  0.3602E+02  0.8203E+02
     -3.708  0.2032E+02  0.8402E+02
     -3.608  0.6428E+01  0.8488E+02
     -3.508  0.6349E+01  0.8552E+02
     -3.407  0.6269E+01  0.8616E+02
     -3.307  0.6190E+01  0.8678E+02
     -3.207  0.7109E+01  0.8742E+02
     -3.107  0.5153E+01  0.9077E+02
     -3.007  0.1109E+02  0.9150E+02
     -2.907  0.4302E+02  0.9329E+02
     -2.807  0.4091E+02  0.9726E+02
     -2.707  0.1967E+02  0.1002E+03
     -2.606  0.9017E+01  0.1016E+03
     -2.506  0.5981E+01  0.1023E+03
     -2.406  0.5766E+02  0.1045E+03
     -2.306  0.2661E+01  0.1074E+03
     -2.206  0.1700E+02  0.1077E+03
     -2.106  0.9239E+01  0.1090E+03
     -2.006  0.2730E+01  0.1095E+03
     -1.906  0.1706E+02  0.1104E+03
     -1.805  0.3100E+02  0.1130E+03
     -1.705  0.3182E+02  0.1163E+03
     -1.605  0.3898E+02  0.1199E+03
     -1.505  0.2070E+02  0.1228E+03
     -1.405  0.1253E+02  0.1244E+03
     -1.305  0.1325E+02  0.1267E+03
     -1.205  0.9666E+01  0.1279E+03
     -1.105  0.9704E+01  0.1288E+03
     -1.004  0.2521E+02  0.1303E+03
     -0.904  0.3087E+02  0.1338E+03
     -0.804  0.1027E+02  0.1353E+03
     -0.704  0.1108E+02  0.1363E+03
     -0.604  0.3173E+02  0.1413E+03
     -0.504  0.2442E+02  0.1433E+03
     -0.404  0.1021E+02  0.1447E+03
     -0.304  0.1485E+02  0.1461E+03
     -0.203  0.9865E+01  0.1476E+03
     -0.103  0.1609E+02  0.1491E+03
     -0.003  0.5075E+02  0.1514E+03
      0.097  0.1086E+02  0.1549E+03
      0.197  0.3202E+02  0.1581E+03
      0.297  0.7441E+01  0.1607E+03
      0.397  0.7511E+01  0.1615E+03
      0.497  0.3181E+02  0.1634E+03
      0.598  0.4719E+02  0.1670E+03
      0.698  0.1344E+02  0.1694E+03
      0.798  0.8560E+01  0.1705E+03
      0.898  0.3065E+02  0.1742E+03
      0.998  0.1553E+02  0.1758E+03
      1.098  0.1862E+02  0.1788E+03
      1.198  0.1956E+02  0.1808E+03
      1.299  0.8724E+02  0.1839E+03
      1.399  0.3696E+02  0.1873E+03
      1.499  0.6046E+02  0.1926E+03
      1.599  0.3836E+02  0.1975E+03
      1.699  0.1551E+02  0.2002E+03
      1.799  0.6000E+01  0.2011E+03
      1.899  0.5751E+01  0.2017E+03
      1.999  0.4236E+01  0.2022E+03
      2.100  0.3020E+01  0.2025E+03
      2.200  0.5591E+01  0.2040E+03
      2.300  0.0000E+00  0.2040E+03
      2.400  0.0000E+00  0.2040E+03
      2.500  0.0000E+00  0.2040E+03
      2.600  0.0000E+00  0.2040E+03
      2.700  0.0000E+00  0.2040E+03
      2.800  0.0000E+00  0.2040E+03
      2.901  0.0000E+00  0.2040E+03
      3.001  0.0000E+00  0.2040E+03
      3.101  0.0000E+00  0.2040E+03
      3.201  0.0000E+00  0.2040E+03
      3.301  0.0000E+00  0.2040E+03
      3.401  0.0000E+00  0.2040E+03
      3.501  0.0000E+00  0.2040E+03
      3.601  0.0000E+00  0.2040E+03
      3.702  0.0000E+00  0.2040E+03
      3.802  0.0000E+00  0.2040E+03
      3.902  0.0000E+00  0.2040E+03
      4.002  0.0000E+00  0.2040E+03
      4.102  0.0000E+00  0.2040E+03
      4.202  0.0000E+00  0.2040E+03
