       N       E                     dE             d eps       ncg     rms          rms(c)
RMM:   1     0.124227070627E+04    0.12423E+04   -0.27905E+04   510   0.785E+02
RMM:   2     0.544715570918E+03   -0.69756E+03   -0.75450E+03   510   0.166E+02
RMM:   3     0.310802093368E+03   -0.23391E+03   -0.29856E+03   510   0.829E+01
RMM:   4     0.134619458110E+03   -0.17618E+03   -0.15134E+03   510   0.785E+01
RMM:   5     0.172956479890E+02   -0.11732E+03   -0.93946E+02   510   0.628E+01
RMM:   6    -0.445740614974E+02   -0.61870E+02   -0.47574E+02   510   0.439E+01
RMM:   7    -0.693530643110E+02   -0.24779E+02   -0.18799E+02   510   0.253E+01
RMM:   8    -0.759133558201E+02   -0.65603E+01   -0.55046E+01   510   0.132E+01
RMM:   9    -0.780618843505E+02   -0.21485E+01   -0.20556E+01  1463   0.743E+00
RMM:  10    -0.783642704753E+02   -0.30239E+00   -0.31520E+00  1767   0.283E+00
RMM:  11    -0.783676330121E+02   -0.33625E-02   -0.16553E-01  1720   0.707E-01
RMM:  12    -0.783706666242E+02   -0.30336E-02   -0.35248E-02  1813   0.296E-01    0.195E+01
RMM:  13    -0.684445819783E+02    0.99261E+01   -0.56586E+01  1428   0.130E+01    0.753E+00
RMM:  14    -0.752589771380E+02   -0.68144E+01   -0.35152E+00  1542   0.292E+00    0.682E+00
RMM:  15    -0.687989405113E+02    0.64600E+01   -0.14952E+00  1496   0.110E+00    0.516E+00
RMM:  16    -0.680063699681E+02    0.79257E+00   -0.11511E+00  1480   0.193E+00    0.218E+00
RMM:  17    -0.679040470679E+02    0.10232E+00   -0.31034E-01  1330   0.116E+00    0.940E-01
RMM:  18    -0.678795471591E+02    0.24500E-01   -0.91931E-02  1590   0.585E-01    0.405E-01
RMM:  19    -0.678786877364E+02    0.85942E-03   -0.28976E-02  1350   0.345E-01    0.220E-01
RMM:  20    -0.678787501815E+02   -0.62445E-04   -0.95915E-03  1474   0.193E-01    0.567E-02
RMM:  21    -0.678765252374E+02    0.22249E-02   -0.11438E-03  1597   0.596E-02    0.400E-02
RMM:  22    -0.678707469335E+02    0.57783E-02   -0.86936E-04  1372   0.473E-02    0.405E-02
RMM:  23    -0.678685269465E+02    0.22200E-02   -0.28353E-04  1343   0.296E-02    0.190E-02
RMM:  24    -0.678690740301E+02   -0.54708E-03   -0.23257E-04  1165   0.303E-02    0.168E-02
RMM:  25    -0.678696439385E+02   -0.56991E-03   -0.17999E-04  1084   0.257E-02    0.915E-03
RMM:  26    -0.678694807521E+02    0.16319E-03   -0.24765E-04  1039   0.229E-02    0.997E-03
RMM:  27    -0.678694110112E+02    0.69741E-04   -0.13016E-04  1001   0.166E-02    0.326E-03
RMM:  28    -0.678694263378E+02   -0.15327E-04   -0.67998E-05   878   0.989E-03    0.306E-03
RMM:  29    -0.678694719564E+02   -0.45619E-04   -0.29003E-05   823   0.777E-03    0.715E-04
RMM:  30    -0.678694929376E+02   -0.20981E-04   -0.31553E-05   840   0.568E-03    0.501E-04
RMM:  31    -0.678695075926E+02   -0.14655E-04   -0.93949E-05   839   0.103E-02    0.363E-04
RMM:  32    -0.678695424347E+02   -0.34842E-04   -0.15584E-04   764   0.134E-02    0.815E-04
RMM:  33    -0.678695329874E+02    0.94473E-05   -0.47038E-06   791   0.344E-03    0.464E-04
RMM:  34    -0.678695225845E+02    0.10403E-04   -0.11965E-05   871   0.385E-03    0.242E-04
RMM:  35    -0.678695062232E+02    0.16361E-04   -0.34950E-05  1051   0.695E-03    0.166E-04
RMM:  36    -0.678695023173E+02    0.39058E-05   -0.53192E-05  1109   0.100E-02    0.154E-04
RMM:  37    -0.678694975281E+02    0.47892E-05   -0.48393E-05  1085   0.786E-03
   1 F= -.67869498E+02 E0= -.67869498E+02  d E =0.000000E+00
