Mg_slab_in_a_box                        
           1
     9.555753    0.000000    0.000000
    -4.777876    8.275525    0.000000
     0.000000    0.000000   32.625095
   Mg   O    H 
  45   6  12
Direct configuration=     1
   0.00000000  0.00000000  0.00000000
   0.99952488  0.00133458  0.15807381
   0.99371154  0.99869258  0.32955968
   0.00000001  0.33333336  0.00000000
   0.00015953  0.33464782  0.15738799
   0.99846348  0.33689182  0.31125693
   0.00000002  0.66666672  0.00000000
   0.99938175  0.66728440  0.15727391
   0.00015053  0.67104174  0.31370107
   0.33333334  0.00000000  0.00000000
   0.33354059  0.00138912  0.15736328
   0.33042076  0.00371679  0.31033914
   0.33333335  0.33333336  0.00000000
   0.33252555  0.33372166  0.15730098
   0.33132723  0.33813720  0.31451880
   0.33333336  0.66666672  0.00000000
   0.33279194  0.66806330  0.15805147
   0.33091200  0.66966739  0.33076036
   0.66666668  0.00000000  0.00000000
   0.66595100  0.00073936  0.15730422
   0.66609221  0.00551698  0.31337159
   0.66666668  0.33333336  0.00000000
   0.66604050  0.33447668  0.15810346
   0.66220945  0.33540701  0.32974663
   0.66666670  0.66666672  0.00000000
   0.66670625  0.66794915  0.15728082
   0.66273219  0.66875802  0.30958389
   0.11111113  0.22222222  0.07982145
   0.10996822  0.22046986  0.23624400
   0.11111114  0.55555561  0.07982145
   0.11375923  0.56017325  0.23596650
   0.11111116  0.88888894  0.07982145
   0.10803067  0.89019495  0.23490997
   0.44444450  0.22222222  0.07982145
   0.44727463  0.22788890  0.23609237
   0.44444450  0.55555561  0.07982145
   0.44064082  0.55631550  0.23477943
   0.44444451  0.88888894  0.07982145
   0.44329038  0.88718826  0.23604293
   0.77777779  0.22222222  0.07982145
   0.77541184  0.22444583  0.23511158
   0.77777781  0.55555561  0.07982145
   0.77731246  0.55417946  0.23578227
   0.77777784  0.88888894  0.07982145
   0.78021499  0.89389145  0.23566540
   0.97010151  0.97785997  0.39649674
   0.24626985  0.92936600  0.41393797
   0.89635130  0.23437532  0.41368615
   0.65521583  0.33680271  0.39593603
   0.61019115  0.61188295  0.41383913
   0.33333514  0.68020151  0.39681960
   0.95464467  0.06260636  0.40961794
   0.05953526  0.97367314  0.41055179
   0.34557752  0.03513567  0.41444805
   0.22315232  0.90843521  0.38391363
   0.00110476  0.33487896  0.41338386
   0.86960395  0.21253855  0.38379926
   0.65386591  0.42991005  0.40882728
   0.73490361  0.31745185  0.41023595
   0.71371560  0.71346695  0.41159170
   0.57382882  0.58626538  0.38475298
   0.31567567  0.76391250  0.40961426
   0.42159819  0.67640356  0.41135436
