  63  63   0   0
  0.4095168E+02  0.9555753E-09  0.9555753E-09  0.3262510E-08  0.5000000E-15
  1.000000000000000E-004
  CAR 
 Mg_slab_in_a_box                        
      4.26054209    -26.20338260  301     -0.51547332      1.00000000
    -26.203  0.0000E+00  0.0000E+00
    -26.102  0.0000E+00  0.0000E+00
    -26.000  0.0000E+00  0.0000E+00
    -25.899  0.0000E+00  0.0000E+00
    -25.797  0.0000E+00  0.0000E+00
    -25.696  0.0000E+00  0.0000E+00
    -25.594  0.0000E+00  0.0000E+00
    -25.493  0.0000E+00  0.0000E+00
    -25.391  0.0000E+00  0.0000E+00
    -25.289  0.0000E+00  0.0000E+00
    -25.188  0.0000E+00  0.0000E+00
    -25.086  0.0000E+00  0.0000E+00
    -24.985  0.0000E+00  0.0000E+00
    -24.883  0.0000E+00  0.0000E+00
    -24.782  0.0000E+00  0.0000E+00
    -24.680  0.0000E+00  0.0000E+00
    -24.579  0.0000E+00  0.0000E+00
    -24.477  0.0000E+00  0.0000E+00
    -24.376  0.0000E+00  0.0000E+00
    -24.274  0.0000E+00  0.0000E+00
    -24.172  0.0000E+00  0.2000E+01
    -24.071  0.0000E+00  0.2000E+01
    -23.969  0.0000E+00  0.2000E+01
    -23.868  0.0000E+00  0.2000E+01
    -23.766  0.0000E+00  0.4000E+01
    -23.665  0.0000E+00  0.6000E+01
    -23.563  0.0000E+00  0.6000E+01
    -23.462  0.1945E+03  0.6310E+01
    -23.360  0.0000E+00  0.8000E+01
    -23.259  0.0000E+00  0.8000E+01
    -23.157  0.0000E+00  0.1000E+02
    -23.055  0.0000E+00  0.1000E+02
    -22.954  0.0000E+00  0.1000E+02
    -22.852  0.0000E+00  0.1000E+02
    -22.751  0.0000E+00  0.1000E+02
    -22.649  0.0000E+00  0.1000E+02
    -22.548  0.0000E+00  0.1000E+02
    -22.446  0.0000E+00  0.1000E+02
    -22.345  0.0000E+00  0.1000E+02
    -22.243  0.0000E+00  0.1000E+02
    -22.142  0.0000E+00  0.1000E+02
    -22.040  0.0000E+00  0.1000E+02
    -21.938  0.0000E+00  0.1000E+02
    -21.837  0.0000E+00  0.1200E+02
    -21.735  0.0000E+00  0.1200E+02
    -21.634  0.0000E+00  0.1200E+02
    -21.532  0.0000E+00  0.1200E+02
    -21.431  0.0000E+00  0.1200E+02
    -21.329  0.0000E+00  0.1200E+02
    -21.228  0.0000E+00  0.1200E+02
    -21.126  0.0000E+00  0.1200E+02
    -21.025  0.0000E+00  0.1200E+02
    -20.923  0.0000E+00  0.1200E+02
    -20.821  0.0000E+00  0.1200E+02
    -20.720  0.0000E+00  0.1200E+02
    -20.618  0.0000E+00  0.1200E+02
    -20.517  0.0000E+00  0.1200E+02
    -20.415  0.0000E+00  0.1200E+02
    -20.314  0.0000E+00  0.1200E+02
    -20.212  0.0000E+00  0.1200E+02
    -20.111  0.0000E+00  0.1200E+02
    -20.009  0.0000E+00  0.1200E+02
    -19.908  0.0000E+00  0.1200E+02
    -19.806  0.0000E+00  0.1200E+02
    -19.704  0.0000E+00  0.1200E+02
    -19.603  0.0000E+00  0.1200E+02
    -19.501  0.0000E+00  0.1200E+02
    -19.400  0.0000E+00  0.1200E+02
    -19.298  0.0000E+00  0.1200E+02
    -19.197  0.0000E+00  0.1200E+02
    -19.095  0.0000E+00  0.1200E+02
    -18.994  0.0000E+00  0.1200E+02
    -18.892  0.0000E+00  0.1200E+02
    -18.790  0.0000E+00  0.1200E+02
    -18.689  0.0000E+00  0.1200E+02
    -18.587  0.0000E+00  0.1200E+02
    -18.486  0.0000E+00  0.1200E+02
    -18.384  0.0000E+00  0.1200E+02
    -18.283  0.0000E+00  0.1200E+02
    -18.181  0.0000E+00  0.1200E+02
    -18.080  0.0000E+00  0.1200E+02
    -17.978  0.0000E+00  0.1200E+02
    -17.877  0.0000E+00  0.1200E+02
    -17.775  0.0000E+00  0.1200E+02
    -17.673  0.0000E+00  0.1200E+02
    -17.572  0.0000E+00  0.1200E+02
    -17.470  0.0000E+00  0.1200E+02
    -17.369  0.0000E+00  0.1200E+02
    -17.267  0.0000E+00  0.1200E+02
    -17.166  0.0000E+00  0.1200E+02
    -17.064  0.0000E+00  0.1200E+02
    -16.963  0.0000E+00  0.1200E+02
    -16.861  0.0000E+00  0.1200E+02
    -16.760  0.0000E+00  0.1200E+02
    -16.658  0.0000E+00  0.1200E+02
    -16.556  0.0000E+00  0.1200E+02
    -16.455  0.0000E+00  0.1200E+02
    -16.353  0.0000E+00  0.1200E+02
    -16.252  0.0000E+00  0.1200E+02
    -16.150  0.0000E+00  0.1200E+02
    -16.049  0.0000E+00  0.1200E+02
    -15.947  0.0000E+00  0.1200E+02
    -15.846  0.0000E+00  0.1200E+02
    -15.744  0.0000E+00  0.1200E+02
    -15.643  0.0000E+00  0.1200E+02
    -15.541  0.0000E+00  0.1200E+02
    -15.439  0.0000E+00  0.1200E+02
    -15.338  0.0000E+00  0.1200E+02
    -15.236  0.0000E+00  0.1200E+02
    -15.135  0.0000E+00  0.1200E+02
    -15.033  0.0000E+00  0.1200E+02
    -14.932  0.0000E+00  0.1200E+02
    -14.830  0.0000E+00  0.1200E+02
    -14.729  0.0000E+00  0.1200E+02
    -14.627  0.0000E+00  0.1200E+02
    -14.526  0.0000E+00  0.1200E+02
    -14.424  0.0000E+00  0.1200E+02
    -14.322  0.0000E+00  0.1200E+02
    -14.221  0.0000E+00  0.1200E+02
    -14.119  0.0000E+00  0.1200E+02
    -14.018  0.0000E+00  0.1200E+02
    -13.916  0.0000E+00  0.1200E+02
    -13.815  0.0000E+00  0.1200E+02
    -13.713  0.0000E+00  0.1200E+02
    -13.612  0.0000E+00  0.1200E+02
    -13.510  0.0000E+00  0.1200E+02
    -13.409  0.0000E+00  0.1200E+02
    -13.307  0.0000E+00  0.1200E+02
    -13.205  0.0000E+00  0.1200E+02
    -13.104  0.0000E+00  0.1200E+02
    -13.002  0.0000E+00  0.1200E+02
    -12.901  0.0000E+00  0.1200E+02
    -12.799  0.0000E+00  0.1200E+02
    -12.698  0.0000E+00  0.1200E+02
    -12.596  0.0000E+00  0.1200E+02
    -12.495  0.0000E+00  0.1200E+02
    -12.393  0.0000E+00  0.1200E+02
    -12.292  0.0000E+00  0.1200E+02
    -12.190  0.0000E+00  0.1200E+02
    -12.088  0.0000E+00  0.1400E+02
    -11.987  0.0000E+00  0.1400E+02
    -11.885  0.0000E+00  0.1400E+02
    -11.784  0.0000E+00  0.1600E+02
    -11.682  0.0000E+00  0.1800E+02
    -11.581  0.0000E+00  0.1800E+02
    -11.479  0.0000E+00  0.1800E+02
    -11.378  0.0000E+00  0.1800E+02
    -11.276  0.0000E+00  0.1800E+02
    -11.175  0.1449E+03  0.1919E+02
    -11.073  0.0000E+00  0.2000E+02
    -10.971  0.0000E+00  0.2000E+02
    -10.870  0.0000E+00  0.2200E+02
    -10.768  0.0000E+00  0.2200E+02
    -10.667  0.0000E+00  0.2200E+02
    -10.565  0.0000E+00  0.2200E+02
    -10.464  0.0000E+00  0.2200E+02
    -10.362  0.0000E+00  0.2200E+02
    -10.261  0.0000E+00  0.2200E+02
    -10.159  0.0000E+00  0.2200E+02
    -10.058  0.0000E+00  0.2200E+02
     -9.956  0.0000E+00  0.2200E+02
     -9.854  0.0000E+00  0.2200E+02
     -9.753  0.0000E+00  0.2200E+02
     -9.651  0.0000E+00  0.2400E+02
     -9.550  0.0000E+00  0.2400E+02
     -9.448  0.0000E+00  0.2400E+02
     -9.347  0.0000E+00  0.2400E+02
     -9.245  0.0000E+00  0.2400E+02
     -9.144  0.0000E+00  0.2400E+02
     -9.042  0.0000E+00  0.2400E+02
     -8.940  0.0000E+00  0.2400E+02
     -8.839  0.0000E+00  0.2400E+02
     -8.737  0.0000E+00  0.2600E+02
     -8.636  0.0000E+00  0.2800E+02
     -8.534  0.0000E+00  0.3000E+02
     -8.433  0.0000E+00  0.3000E+02
     -8.331  0.0000E+00  0.3000E+02
     -8.230  0.0000E+00  0.3000E+02
     -8.128  0.0000E+00  0.3000E+02
     -8.027  0.0000E+00  0.3000E+02
     -7.925  0.0000E+00  0.3200E+02
     -7.823  0.0000E+00  0.3200E+02
     -7.722  0.9598E+02  0.3204E+02
     -7.620  0.0000E+00  0.3400E+02
     -7.519  0.0000E+00  0.3400E+02
     -7.417  0.0000E+00  0.3400E+02
     -7.316  0.0000E+00  0.3400E+02
     -7.214  0.4793E+01  0.3422E+02
     -7.113  0.9456E+01  0.3610E+02
     -7.011  0.9945E+01  0.3768E+02
     -6.910  0.2713E+01  0.3801E+02
     -6.808  0.7946E+01  0.3902E+02
     -6.706  0.4668E+01  0.3966E+02
     -6.605  0.1391E+01  0.3997E+02
     -6.503  0.1426E+02  0.4029E+02
     -6.402  0.1601E+02  0.4269E+02
     -6.300  0.3974E+02  0.4582E+02
     -6.199  0.4495E+01  0.4767E+02
     -6.097  0.2542E+02  0.4849E+02
     -5.996  0.2038E+02  0.5027E+02
     -5.894  0.2034E+02  0.5303E+02
     -5.793  0.1885E+02  0.5479E+02
     -5.691  0.2027E+02  0.5651E+02
     -5.589  0.2120E+02  0.5849E+02
     -5.488  0.7380E+01  0.6073E+02
     -5.386  0.4866E+01  0.6133E+02
     -5.285  0.7430E+01  0.6177E+02
     -5.183  0.1318E+02  0.6327E+02
     -5.082  0.1310E+01  0.6399E+02
     -4.980  0.4616E+02  0.6600E+02
     -4.879  0.9317E+01  0.6685E+02
     -4.777  0.5496E+01  0.6760E+02
     -4.676  0.1676E+01  0.6796E+02
     -4.574  0.7278E+01  0.6938E+02
     -4.472  0.5741E+01  0.7003E+02
     -4.371  0.1016E+02  0.7063E+02
     -4.269  0.2146E+02  0.7292E+02
     -4.168  0.1654E+02  0.7499E+02
     -4.066  0.1687E+02  0.7641E+02
     -3.965  0.1318E+02  0.7825E+02
     -3.863  0.2853E+02  0.7960E+02
     -3.762  0.5013E+01  0.8044E+02
     -3.660  0.1989E+02  0.8153E+02
     -3.559  0.2409E+02  0.8374E+02
     -3.457  0.9036E+01  0.8495E+02
     -3.355  0.7477E+01  0.8681E+02
     -3.254  0.6842E+01  0.8754E+02
     -3.152  0.6874E+01  0.8823E+02
     -3.051  0.7043E+01  0.8894E+02
     -2.949  0.4377E+02  0.8995E+02
     -2.848  0.2015E+02  0.9245E+02
     -2.746  0.2201E+02  0.9433E+02
     -2.645  0.2343E+02  0.9719E+02
     -2.543  0.2451E+02  0.9992E+02
     -2.442  0.9203E+01  0.1015E+03
     -2.340  0.1873E+02  0.1035E+03
     -2.238  0.3879E+02  0.1047E+03
     -2.137  0.8554E+01  0.1072E+03
     -2.035  0.1503E+02  0.1089E+03
     -1.934  0.3574E+01  0.1095E+03
     -1.832  0.3782E+01  0.1112E+03
     -1.731  0.1382E+02  0.1120E+03
     -1.629  0.2759E+02  0.1142E+03
     -1.528  0.2849E+02  0.1173E+03
     -1.426  0.2895E+02  0.1202E+03
     -1.325  0.2219E+02  0.1228E+03
     -1.223  0.1557E+02  0.1247E+03
     -1.121  0.1509E+02  0.1263E+03
     -1.020  0.1533E+02  0.1278E+03
     -0.918  0.1591E+02  0.1294E+03
     -0.817  0.1568E+02  0.1317E+03
     -0.715  0.1691E+02  0.1342E+03
     -0.614  0.1948E+02  0.1364E+03
     -0.512  0.6994E+02  0.1382E+03
     -0.411  0.2813E+02  0.1411E+03
     -0.309  0.1516E+02  0.1432E+03
     -0.208  0.1081E+02  0.1452E+03
     -0.106  0.1139E+02  0.1469E+03
     -0.004  0.1912E+02  0.1487E+03
      0.097  0.1969E+02  0.1504E+03
      0.199  0.3559E+02  0.1536E+03
      0.300  0.1364E+02  0.1566E+03
      0.402  0.2839E+02  0.1589E+03
      0.503  0.1969E+02  0.1613E+03
      0.605  0.2865E+02  0.1634E+03
      0.706  0.1658E+02  0.1668E+03
      0.808  0.1905E+02  0.1692E+03
      0.910  0.3501E+02  0.1718E+03
      1.011  0.2184E+02  0.1744E+03
      1.113  0.2748E+02  0.1764E+03
      1.214  0.2921E+02  0.1793E+03
      1.316  0.2536E+02  0.1817E+03
      1.417  0.2989E+02  0.1851E+03
      1.519  0.4855E+02  0.1886E+03
      1.620  0.4211E+02  0.1924E+03
      1.722  0.4127E+02  0.1970E+03
      1.823  0.2457E+02  0.2005E+03
      1.925  0.5274E+01  0.2019E+03
      2.027  0.6988E+01  0.2024E+03
      2.128  0.8359E+01  0.2033E+03
      2.230  0.4788E+01  0.2039E+03
      2.331  0.0000E+00  0.2040E+03
      2.433  0.0000E+00  0.2040E+03
      2.534  0.0000E+00  0.2040E+03
      2.636  0.0000E+00  0.2040E+03
      2.737  0.0000E+00  0.2040E+03
      2.839  0.0000E+00  0.2040E+03
      2.940  0.0000E+00  0.2040E+03
      3.042  0.0000E+00  0.2040E+03
      3.144  0.0000E+00  0.2040E+03
      3.245  0.0000E+00  0.2040E+03
      3.347  0.0000E+00  0.2040E+03
      3.448  0.0000E+00  0.2040E+03
      3.550  0.0000E+00  0.2040E+03
      3.651  0.0000E+00  0.2040E+03
      3.753  0.0000E+00  0.2040E+03
      3.854  0.0000E+00  0.2040E+03
      3.956  0.0000E+00  0.2040E+03
      4.057  0.0000E+00  0.2040E+03
      4.159  0.0000E+00  0.2040E+03
      4.261  0.0000E+00  0.2040E+03
