 vasp.5.4.4.18Apr17-6-g9f103f2a35 (build Jun 08 2018 12:06:12) complex          
  
 executed on             LinuxIFC date 2019.06.06  07:40:18
 running on   72 total cores
 distrk:  each k-point on   72 cores,    1 groups
 distr:  one band on NCORES_PER_BAND=  24 cores,    3 groups


--------------------------------------------------------------------------------------------------------


 INCAR:
 POTCAR:    PAW_PBE Mg 13Apr2007                  
 POTCAR:    PAW_PBE O 08Apr2002                   
 POTCAR:    PAW_PBE H 15Jun2001                   

 ----------------------------------------------------------------------------- 
|                                                                             |
|           W    W    AA    RRRRR   N    N  II  N    N   GGGG   !!!           |
|           W    W   A  A   R    R  NN   N  II  NN   N  G    G  !!!           |
|           W    W  A    A  R    R  N N  N  II  N N  N  G       !!!           |
|           W WW W  AAAAAA  RRRRR   N  N N  II  N  N N  G  GGG   !            |
|           WW  WW  A    A  R   R   N   NN  II  N   NN  G    G                |
|           W    W  A    A  R    R  N    N  II  N    N   GGGG   !!!           |
|                                                                             |
|      For optimal performance we recommend to set                            |
|        NCORE= 4 - approx SQRT( number of cores)                             |
|      NCORE specifies how many cores store one orbital (NPAR=cpu/NCORE).     |
|      This setting can  greatly improve the performance of VASP for DFT.     |
|      The default,   NCORE=1            might be grossly inefficient         |
|      on modern multi-core architectures or massively parallel machines.     |
|      Do your own testing !!!!                                               |
|      Unfortunately you need to use the default for GW and RPA calculations. |
|      (for HF NCORE is supported but not extensively tested yet)             |
|                                                                             |
 ----------------------------------------------------------------------------- 


 ----------------------------------------------------------------------------- 
|                                                                             |
|  ADVICE TO THIS USER RUNNING 'VASP/VAMP'   (HEAR YOUR MASTER'S VOICE ...):  |
|                                                                             |
|      You have switched on vdW-DFT.                                          |
|      This routine was written and supplied by Jiri Klimes.                  |
|      We recommed that you carefully read and cite the following             |
|      publication                                                            |
|      J. Klimes, D.R. Bowler, A. Michelides                                  |
|        J. Phys.: Cond Matt. 22 022201 (2010)                                |
|      J. Klimes, D.R. Bowler, A. Michelides                                  |
|        Phys. Rev. B. 83, 195131 (2011)                                      |
|      and references therein.                                                |
|                                                                             |
 ----------------------------------------------------------------------------- 

 POTCAR:    PAW_PBE Mg 13Apr2007                  
   VRHFIN =Mg: s2p0                                                             
   LEXCH  = PE                                                                  
   EATOM  =    23.0369 eV,    1.6932 Ry                                         
                                                                                
   TITEL  = PAW_PBE Mg 13Apr2007                                                
   LULTRA =        F    use ultrasoft PP ?                                      
   IUNSCR =        1    unscreen: 0-lin 1-nonlin 2-no                           
   RPACOR =    1.500    partial core radius                                     
   POMASS =   24.305; ZVAL   =    2.000    mass and valenz                      
   RCORE  =    2.000    outmost cutoff radius                                   
   RWIGS  =    2.880; RWIGS  =    1.524    wigner-seitz radius (au A)           
   ENMAX  =  200.000; ENMIN  =  100.000 eV                                      
   RCLOC  =    1.506    cutoff for local pot                                    
   LCOR   =        T    correct aug charges                                     
   LPAW   =        T    paw PP                                                  
   EAUG   =  454.734                                                            
   DEXC   =    0.000                                                            
   RMAX   =    2.045    core radius for proj-oper                               
   RAUG   =    1.300    factor for augmentation sphere                          
   RDEP   =    2.025    radius for radial grids                                 
   RDEPT  =    1.942    core radius for aug-charge                              
                                                                                
   Atomic configuration                                                         
    6 entries                                                                   
     n  l   j            E        occ.                                          
     1  0  0.50     -1259.6230   2.0000                                         
     2  0  0.50       -79.8442   2.0000                                         
     2  1  1.50       -46.6121   6.0000                                         
     3  0  0.50        -4.7055   2.0000                                         
     3  1  0.50        -1.3660   0.0000                                         
     3  2  1.50        -1.3606   0.0000                                         
   Description                                                                  
     l       E           TYP  RCUT    TYP  RCUT                                 
     0     -4.7054661     23  2.000                                             
     0     27.2116520     23  2.000                                             
     1      1.3605826     23  2.000                                             
     1     27.2116520     23  2.000                                             
     2     -1.3605826     23  2.000                                             
  local pseudopotential read in
  partial core-charges read in
  partial kinetic energy density read in
  atomic valenz-charges read in
  non local Contribution for L=           0  read in
    real space projection operators read in
  non local Contribution for L=           0  read in
    real space projection operators read in
  non local Contribution for L=           1  read in
    real space projection operators read in
  non local Contribution for L=           1  read in
    real space projection operators read in
  non local Contribution for L=           2  read in
    real space projection operators read in
    PAW grid and wavefunctions read in
 
   number of l-projection  operators is LMAX  =           5
   number of lm-projection operators is LMMAX =          13
 
 POTCAR:    PAW_PBE O 08Apr2002                   
   VRHFIN =O: s2p4                                                              
   LEXCH  = PE                                                                  
   EATOM  =   432.3788 eV,   31.7789 Ry                                         
                                                                                
   TITEL  = PAW_PBE O 08Apr2002                                                 
   LULTRA =        F    use ultrasoft PP ?                                      
   IUNSCR =        1    unscreen: 0-lin 1-nonlin 2-no                           
   RPACOR =    1.200    partial core radius                                     
   POMASS =   16.000; ZVAL   =    6.000    mass and valenz                      
   RCORE  =    1.520    outmost cutoff radius                                   
   RWIGS  =    1.550; RWIGS  =    0.820    wigner-seitz radius (au A)           
   ENMAX  =  400.000; ENMIN  =  300.000 eV                                      
   ICORE  =        2    local potential                                         
   LCOR   =        T    correct aug charges                                     
   LPAW   =        T    paw PP                                                  
   EAUG   =  605.392                                                            
   DEXC   =    0.000                                                            
   RMAX   =    1.553    core radius for proj-oper                               
   RAUG   =    1.300    factor for augmentation sphere                          
   RDEP   =    1.550    radius for radial grids                                 
   RDEPT  =    1.329    core radius for aug-charge                              
                                                                                
   Atomic configuration                                                         
    4 entries                                                                   
     n  l   j            E        occ.                                          
     1  0  0.50      -514.6923   2.0000                                         
     2  0  0.50       -23.9615   2.0000                                         
     2  1  0.50        -9.0305   4.0000                                         
     3  2  1.50        -9.5241   0.0000                                         
   Description                                                                  
     l       E           TYP  RCUT    TYP  RCUT                                 
     0    -23.9615318     23  1.200                                             
     0     -9.5240782     23  1.200                                             
     1     -9.0304911     23  1.520                                             
     1      8.1634956     23  1.520                                             
     2     -9.5240782      7  1.500                                             
  local pseudopotential read in
  partial core-charges read in
  partial kinetic energy density read in
  kinetic energy density of atom read in
  atomic valenz-charges read in
  non local Contribution for L=           0  read in
    real space projection operators read in
  non local Contribution for L=           0  read in
    real space projection operators read in
  non local Contribution for L=           1  read in
    real space projection operators read in
  non local Contribution for L=           1  read in
    real space projection operators read in
    PAW grid and wavefunctions read in
 
   number of l-projection  operators is LMAX  =           4
   number of lm-projection operators is LMMAX =           8
 
 POTCAR:    PAW_PBE H 15Jun2001                   
   VRHFIN =H: ultrasoft test                                                    
   LEXCH  = PE                                                                  
   EATOM  =    12.4884 eV,    0.9179 Ry                                         
                                                                                
   TITEL  = PAW_PBE H 15Jun2001                                                 
   LULTRA =        F    use ultrasoft PP ?                                      
   IUNSCR =        0    unscreen: 0-lin 1-nonlin 2-no                           
   RPACOR =    0.000    partial core radius                                     
   POMASS =    1.000; ZVAL   =    1.000    mass and valenz                      
   RCORE  =    1.100    outmost cutoff radius                                   
   RWIGS  =    0.700; RWIGS  =    0.370    wigner-seitz radius (au A)           
   ENMAX  =  250.000; ENMIN  =  200.000 eV                                      
   RCLOC  =    0.701    cutoff for local pot                                    
   LCOR   =        T    correct aug charges                                     
   LPAW   =        T    paw PP                                                  
   EAUG   =  400.000                                                            
   RMAX   =    1.123    core radius for proj-oper                               
   RAUG   =    1.200    factor for augmentation sphere                          
   RDEP   =    1.112    radius for radial grids                                 
   RDEPT  =    0.926    core radius for aug-charge                              
                                                                                
   Atomic configuration                                                         
    2 entries                                                                   
     n  l   j            E        occ.                                          
     1  0  0.50        -6.4927   1.0000                                         
     2  1  0.50        -3.4015   0.0000                                         
   Description                                                                  
     l       E           TYP  RCUT    TYP  RCUT                                 
     0     -6.4927494     23  1.100                                             
     0      6.8029130     23  1.100                                             
     1     -4.0817478     23  1.100                                             
  local pseudopotential read in
  atomic valenz-charges read in
  non local Contribution for L=           0  read in
    real space projection operators read in
  non local Contribution for L=           0  read in
    real space projection operators read in
  non local Contribution for L=           1  read in
    real space projection operators read in
    PAW grid and wavefunctions read in
 
   number of l-projection  operators is LMAX  =           3
   number of lm-projection operators is LMMAX =           5
 
 Optimization of the real space projectors (new method)

 maximal supplied QI-value         = 18.90
 optimisation between [QCUT,QGAM] = [ 11.53, 23.24] = [ 37.21,151.29] Ry 
 Optimized for a Real-space Cutoff    1.28 Angstroem

   l    n(q)    QCUT    max X(q) W(low)/X(q) W(high)/X(q)  e(spline) 
   0      9    11.527    28.265    0.62E-04    0.53E-04    0.73E-07
   0      9    11.527    10.429    0.52E-04    0.40E-04    0.58E-07
   1      8    11.527    13.073    0.98E-04    0.18E-03    0.86E-07
   1      8    11.527     9.625    0.79E-04    0.15E-03    0.74E-07
   2      8    11.527     4.652    0.22E-03    0.72E-04    0.47E-07
 Optimization of the real space projectors (new method)

 maximal supplied QI-value         = 24.76
 optimisation between [QCUT,QGAM] = [ 11.64, 23.27] = [ 37.91,151.63] Ry 
 Optimized for a Real-space Cutoff    1.14 Angstroem

   l    n(q)    QCUT    max X(q) W(low)/X(q) W(high)/X(q)  e(spline) 
   0      8    11.635    20.381    0.10E-03    0.33E-03    0.24E-06
   0      8    11.635    15.268    0.11E-03    0.35E-03    0.26E-06
   1      7    11.635     5.964    0.24E-03    0.31E-03    0.30E-06
   1      7    11.635     5.382    0.22E-03    0.25E-03    0.26E-06
 Optimization of the real space projectors (new method)

 maximal supplied QI-value         = 34.20
 optimisation between [QCUT,QGAM] = [ 11.63, 23.26] = [ 37.87,151.49] Ry 
 Optimized for a Real-space Cutoff    1.21 Angstroem

   l    n(q)    QCUT    max X(q) W(low)/X(q) W(high)/X(q)  e(spline) 
   0      8    11.629    19.460    0.17E-03    0.34E-03    0.21E-06
   0      8    11.629    12.209    0.16E-03    0.33E-03    0.21E-06
   1      8    11.629     4.655    0.18E-03    0.16E-03    0.26E-06

 ----------------------------------------------------------------------------- 
|                                                                             |
|  ADVICE TO THIS USER RUNNING 'VASP/VAMP'   (HEAR YOUR MASTER'S VOICE ...):  |
|                                                                             |
|      You enforced a specific xc-type in the INCAR file,                     |
|      a different type was found on the POTCAR file                          |
|          I HOPE YOU KNOW, WHAT YOU ARE  DOING                               |
|                                                                             |
 ----------------------------------------------------------------------------- 

  PAW_PBE Mg 13Apr2007                  :
 energy of atom  1       EATOM=  -23.0369
 kinetic energy error for atom=    0.0000 (will be added to EATOM!!)
  PAW_PBE O 08Apr2002                   :
 energy of atom  2       EATOM= -432.3788
 kinetic energy error for atom=    0.0208 (will be added to EATOM!!)
  PAW_PBE H 15Jun2001                   :
 energy of atom  3       EATOM=  -12.4884
 kinetic energy error for atom=    0.0014 (will be added to EATOM!!)
 
 
 POSCAR: Mg   O    H                             
  positions in direct lattice
  velocities in cartesian coordinates
 exchange correlation table for  LEXCH =       42
   RHO(1)=    0.500       N(1)  =     2000
   RHO(2)=  100.500       N(2)  =     4000

 VTST: version 3.2, (02/03/18)

 CHAIN: initializing optimizer
 
 OPT: Using VASP Dynamics algorithm
 CHAIN: Read ICHAIN            0
 
 POSCAR: Mg   O    H                             
  positions in direct lattice
  velocities in cartesian coordinates
 


--------------------------------------------------------------------------------------------------------


 ion  position               nearest neighbor table
   1  0.000  0.000  0.000-   7 3.19  25 3.19  19 3.19  10 3.19   4 3.19  13 3.19  44 3.19  32 3.19
                            28 3.19
   2  0.999  0.002  0.158-  33 3.10  28 3.14  29 3.14  44 3.15  32 3.16  26 3.16  14 3.17   8 3.18
                            20 3.18   5 3.19  45 3.19  11 3.20
   3  0.002  0.014  0.330-  46 2.17  15 3.10  21 3.21  12 3.22   9 3.23   6 3.24  27 3.26  45 3.50
                            29 3.51  33 3.60
   4  0.000  0.333  0.000-  22 3.19  13 3.19  19 3.19  16 3.19   1 3.19   7 3.19  40 3.19  30 3.19
                            28 3.19
   5  0.000  0.336  0.158-  30 3.13  40 3.14  29 3.14  28 3.15  41 3.16  14 3.18  17 3.19   8 3.19
                            23 3.19   2 3.19  31 3.20  20 3.20
   6  0.992  0.342  0.312-  31 3.06  41 3.08  21 3.11  29 3.14  15 3.18   9 3.18  24 3.21   3 3.24
                            18 3.26
   7  0.000  0.667  0.000-   1 3.19  10 3.19  25 3.19  16 3.19  22 3.19   4 3.19  42 3.19  32 3.19
                            30 3.19
   8  0.001  0.670  0.158-  32 3.13  42 3.14  33 3.15  30 3.15  26 3.16  17 3.17  31 3.18   2 3.18
                            11 3.18   5 3.19  23 3.19  43 3.19
   9  0.999  0.678  0.315-  50 2.43  18 3.11  43 3.13  33 3.15   6 3.18  31 3.19  12 3.19   3 3.23
                            27 3.27  24 3.32
  10  0.333  0.000  0.000-  16 3.19   7 3.19  19 3.19   1 3.19  22 3.19  13 3.19  32 3.19  34 3.19
                            38 3.19
  11  0.334  0.002  0.157-  34 3.12  32 3.13  38 3.13  17 3.16  33 3.17  20 3.18  14 3.18   8 3.18
                            23 3.19   2 3.20  39 3.21  35 3.21
  12  0.332  0.013  0.310-  35 3.01  33 3.03  39 3.06  15 3.13  18 3.19   9 3.19  24 3.19   3 3.22
                            21 3.24
  13  0.333  0.333  0.000-  22 3.19   4 3.19  10 3.19   1 3.19  25 3.19  16 3.19  28 3.19  36 3.19
                            34 3.19
  14  0.332  0.333  0.157-  28 3.11  37 3.12  36 3.12  34 3.13  35 3.15   2 3.17   5 3.18  11 3.18
                            23 3.19  29 3.19  17 3.21  26 3.22
  15  0.320  0.334  0.312-  61 1.95  29 3.04   3 3.10  35 3.13  12 3.13   6 3.18  37 3.18  27 3.28
                            24 3.31  18 3.36
  16  0.333  0.667  0.000-  10 3.19  19 3.19   7 3.19  25 3.19   4 3.19  13 3.19  38 3.19  30 3.19
                            36 3.19
  17  0.333  0.670  0.158-  37 3.09  38 3.13  30 3.14  31 3.15  39 3.16  36 3.16  11 3.16  20 3.17
                             8 3.17   5 3.19  14 3.21  26 3.22
  18  0.322  0.682  0.330-  61 1.96  51 2.15   9 3.11  12 3.19  27 3.25   6 3.26  21 3.29  15 3.36
                            39 3.47  31 3.48
  19  0.667  0.000  0.000-  25 3.19  16 3.19   1 3.19  10 3.19   4 3.19  22 3.19  38 3.19  44 3.19
                            40 3.19
  20  0.666  0.000  0.158-  38 3.14  40 3.14  44 3.15  41 3.15  17 3.17  11 3.18  26 3.18  39 3.18
                             2 3.18   5 3.20  23 3.20  45 3.22
  21  0.670  0.013  0.314-   6 3.11  41 3.11  27 3.11  45 3.13  39 3.14  24 3.17   3 3.21  12 3.24
                            18 3.29
  22  0.667  0.333  0.000-  13 3.19   4 3.19  10 3.19  25 3.19   7 3.19  19 3.19  34 3.19  42 3.19
                            40 3.19
  23  0.667  0.336  0.159-  41 3.10  35 3.11  42 3.14  34 3.16  43 3.16  26 3.17  40 3.17   8 3.19
                             5 3.19  11 3.19  14 3.19  20 3.20
  24  0.659  0.334  0.333-  50 2.08  49 2.26  21 3.17  12 3.19   6 3.21  15 3.31   9 3.32  27 3.37
                            35 3.61  43 3.63
  25  0.667  0.667  0.000-   1 3.19  19 3.19   7 3.19  16 3.19  22 3.19  13 3.19  36 3.19  42 3.19
                            44 3.19
  26  0.669  0.670  0.158-  37 3.09  44 3.12  42 3.13  36 3.15   8 3.16   2 3.16  23 3.17  43 3.18
                            20 3.18  17 3.22  14 3.22  45 3.22
  27  0.658  0.682  0.316-  61 1.95  50 2.03  45 3.07  21 3.11  37 3.22  18 3.25  43 3.26   3 3.26
                             9 3.27  15 3.28  24 3.37
  28  0.111  0.222  0.080-  14 3.11   2 3.14   5 3.15  44 3.19  32 3.19  40 3.19  34 3.19  36 3.19
                            30 3.19   1 3.19  13 3.19   4 3.19
  29  0.107  0.224  0.237-  15 3.04   6 3.14   5 3.14   2 3.14  45 3.15  33 3.16  41 3.19  14 3.19
                            31 3.19  35 3.22  37 3.23   3 3.51
  30  0.111  0.556  0.080-   5 3.13  17 3.14   8 3.15  32 3.19  42 3.19  38 3.19  40 3.19  36 3.19
                            28 3.19  16 3.19   7 3.19   4 3.19
  31  0.116  0.562  0.237-   6 3.06  39 3.12  17 3.15  37 3.18   8 3.18   9 3.19  29 3.19   5 3.20
                            33 3.21  43 3.21  41 3.24  18 3.48
  32  0.111  0.889  0.080-   8 3.13  11 3.13   2 3.16  28 3.19  34 3.19  44 3.19  30 3.19  42 3.19
                            38 3.19  10 3.19   1 3.19   7 3.19
  33  0.109  0.894  0.236-  12 3.03   2 3.10  45 3.13   9 3.15   8 3.15  29 3.16  11 3.17  43 3.19
                            31 3.21  39 3.23  35 3.25   3 3.60
  34  0.444  0.222  0.080-  11 3.12  14 3.13  23 3.16  38 3.19  40 3.19  32 3.19  42 3.19  28 3.19
                            36 3.19  22 3.19  10 3.19  13 3.19
  35  0.449  0.234  0.236-  12 3.01  23 3.11  43 3.12  15 3.13  37 3.13  14 3.15  41 3.15  11 3.21
                            29 3.22  33 3.25  39 3.28  24 3.61
  36  0.444  0.556  0.080-  14 3.12  26 3.15  17 3.16  42 3.19  38 3.19  44 3.19  30 3.19  28 3.19
                            34 3.19  25 3.19  13 3.19  16 3.19
  37  0.447  0.560  0.234-  17 3.09  26 3.09  14 3.12  35 3.13  39 3.15  43 3.17  31 3.18  15 3.18
                            45 3.18  27 3.22  29 3.23
  38  0.444  0.889  0.080-  17 3.13  11 3.13  20 3.14  40 3.19  34 3.19  44 3.19  36 3.19  30 3.19
                            32 3.19  19 3.19  16 3.19  10 3.19
  39  0.443  0.887  0.238-  12 3.06  31 3.12  21 3.14  37 3.15  17 3.16  20 3.18  45 3.20  41 3.20
                            11 3.21  33 3.23  35 3.28  18 3.47
  40  0.778  0.222  0.080-   5 3.14  20 3.14  23 3.17  38 3.19  34 3.19  44 3.19  28 3.19  30 3.19
                            42 3.19   4 3.19  19 3.19  22 3.19
  41  0.774  0.226  0.236-   6 3.08  23 3.10  21 3.11  35 3.15  20 3.15  43 3.16   5 3.16  29 3.19
                            39 3.20  45 3.23  31 3.24
  42  0.778  0.556  0.080-  26 3.13   8 3.14  23 3.14  36 3.19  44 3.19  30 3.19  32 3.19  34 3.19
                            40 3.19  25 3.19   7 3.19  22 3.19
  43  0.777  0.558  0.238-  35 3.12   9 3.13  41 3.16  23 3.16  37 3.17  45 3.17  26 3.18  33 3.19
                             8 3.19  31 3.21  27 3.26  24 3.63
  44  0.778  0.889  0.080-  26 3.12   2 3.15  20 3.15  28 3.19  40 3.19  42 3.19  32 3.19  38 3.19
                            36 3.19   1 3.19  19 3.19  25 3.19
  45  0.780  0.891  0.239-  27 3.07  21 3.13  33 3.13  29 3.15  43 3.17  37 3.18   2 3.19  39 3.20
                            26 3.22  20 3.22  41 3.23   3 3.50
  46  0.000  1.000  0.396-  53 0.99  52 0.99   3 2.17
  47  0.291  0.964  0.413-  54 0.99  55 1.00
  48  0.879  0.223  0.416-  56 0.98  57 1.01
  49  0.609  0.271  0.400-  58 0.98  59 0.99  24 2.26
  50  0.746  0.570  0.353-  60 0.98  27 2.03  24 2.08   9 2.43
  51  0.351  0.708  0.396-  63 0.98  62 1.00  18 2.15
  52  0.968  0.070  0.411-  46 0.99
  53  0.095  0.006  0.410-  46 0.99
  54  0.393  0.068  0.411-  47 0.99
  55  0.254  0.939  0.384-  47 1.00
  56  0.979  0.328  0.418-  48 0.98
  57  0.865  0.208  0.385-  48 1.01
  58  0.618  0.373  0.409-  49 0.98
  59  0.699  0.263  0.413-  49 0.99
  60  0.788  0.621  0.379-  50 0.98
  61  0.432  0.556  0.333-  27 1.95  15 1.95  18 1.96
  62  0.341  0.799  0.407-  51 1.00
  63  0.454  0.722  0.405-  51 0.98
 
  LATTYP: Found a hexagonal cell.
 ALAT       =     9.5557527542
 C/A-ratio  =     3.4141837076
  
  Lattice vectors:
  
 A1 = (   9.5557527542,   0.0000000000,   0.0000000000)
 A2 = (  -4.7778763771,   8.2755246374,   0.0000000000)
 A3 = (   0.0000000000,   0.0000000000,  32.6250953674)


Analysis of symmetry for initial positions (statically):
=====================================================================
 Subroutine PRICEL returns:
 Original cell was already a primitive cell.
 

 Routine SETGRP: Setting up the symmetry group for a 
 hexagonal supercell.


 Subroutine GETGRP returns: Found  1 space group operations
 (whereof  1 operations were pure point group operations)
 out of a pool of 24 trial point group operations.


The static configuration has the point symmetry C_1 .


Analysis of symmetry for dynamics (positions and initial velocities):
=====================================================================
 Subroutine PRICEL returns:
 Original cell was already a primitive cell.
 

 Routine SETGRP: Setting up the symmetry group for a 
 hexagonal supercell.


 Subroutine GETGRP returns: Found  1 space group operations
 (whereof  1 operations were pure point group operations)
 out of a pool of 24 trial point group operations.


The dynamic configuration has the point symmetry C_1 .


Analysis of constrained symmetry for selective dynamics:
=====================================================================
 Subroutine PRICEL returns:
 Original cell was already a primitive cell.
 

 Routine SETGRP: Setting up the symmetry group for a 
 hexagonal supercell.


 Subroutine GETGRP returns: Found  1 space group operations
 (whereof  1 operations were pure point group operations)
 out of a pool of 24 trial point group operations.


The constrained configuration has the point symmetry C_1 .


 Subroutine INISYM returns: Found  1 space group operations
 (whereof  1 operations are pure point group operations),
 and found     1 'primitive' translations

 
 
 KPOINTS: Auto                                    

Automatic generation of k-mesh.
Space group operators:
 irot       det(A)        alpha          n_x          n_y          n_z        tau_x        tau_y        tau_z
    1     1.000000     0.000000     1.000000     0.000000     0.000000     0.000000     0.000000     0.000000
 
 Subroutine IBZKPT returns following result:
 ===========================================
 
 Found      5 irreducible k-points:
 
 Following reciprocal coordinates:
            Coordinates               Weight
  0.000000  0.000000  0.000000      1.000000
  0.333333 -0.000000  0.000000      2.000000
  0.000000  0.333333  0.000000      2.000000
  0.333333  0.333333  0.000000      2.000000
 -0.333333  0.333333  0.000000      2.000000
 
 Following cartesian coordinates:
            Coordinates               Weight
  0.000000  0.000000  0.000000      1.000000
  0.034883  0.020140  0.000000      2.000000
  0.000000  0.040279  0.000000      2.000000
  0.034883  0.060419  0.000000      2.000000
 -0.034883  0.020140  0.000000      2.000000
 
 TETIRR: Found     24 inequivalent tetrahedra from       54


--------------------------------------------------------------------------------------------------------




 Dimension of arrays:
   k-points           NKPTS =      5   k-points in BZ     NKDIM =      5   number of bands    NBANDS=    102
   number of dos      NEDOS =    301   number of ions     NIONS =     63
   non local maximal  LDIM  =      5   non local SUM 2l+1 LMDIM =     13
   total plane-waves  NPLWV = ******
   max r-space proj   IRMAX =   4509   max aug-charges    IRDMAX=  21536
   dimension x,y,z NGX =    72 NGY =   72 NGZ =  250
   dimension x,y,z NGXF=   144 NGYF=  144 NGZF=  500
   support grid    NGXF=   144 NGYF=  144 NGZF=  500
   ions per type =              45   6  12
   NGX,Y,Z   is equivalent  to a cutoff of  12.53, 12.53, 12.74 a.u.
   NGXF,Y,Z  is equivalent  to a cutoff of  25.05, 25.05, 25.48 a.u.

 SYSTEM =  Mg_slab_in_a_box                        
 POSCAR =  Mg   O    H                             

 Startparameter for this run:
   NWRITE =      2    write-flag & timer
   PREC   = accura    normal or accurate (medium, high low for compatibility)
   ISTART =      0    job   : 0-new  1-cont  2-samecut
   ICHARG =      2    charge: 1-file 2-atom 10-const
   ISPIN  =      1    spin polarized calculation?
   LNONCOLLINEAR =      F non collinear calculations
   LSORBIT =      F    spin-orbit coupling
   INIWAV =      1    electr: 0-lowe 1-rand  2-diag
   LASPH  =      T    aspherical Exc in radial PAW
   METAGGA=      F    non-selfconsistent MetaGGA calc.

 Electronic Relaxation 1
   ENCUT  =  520.0 eV  38.22 Ry    6.18 a.u.  17.77 17.77 60.66*2*pi/ulx,y,z
   ENINI  =  520.0     initial cutoff
   ENAUG  =  605.4 eV  augmentation charge cutoff
   NELM   =    300;   NELMIN=  6; NELMDL=-12     # of ELM steps 
   EDIFF  = 0.5E-05   stopping-criterion for ELM
   LREAL  =      T    real-space projection
   NLSPLINE    = F    spline interpolate recip. space projectors
   LCOMPAT=      F    compatible to vasp.4.4
   GGA_COMPAT  = T    GGA compatible to vasp.4.4-vasp.4.6
   LMAXPAW     = -100 max onsite density
   LMAXMIX     =    2 max onsite mixed and CHGCAR
   VOSKOWN=      0    Vosko Wilk Nusair interpolation
   ROPT   =   -0.00025  -0.00025  -0.00025
 Ionic relaxation
   EDIFFG = 0.5E-04   stopping-criterion for IOM
   NSW    =      0    number of steps for IOM
   NBLOCK =      1;   KBLOCK =      1    inner block; outer block 
   IBRION =     -1    ionic relax: 0-MD 1-quasi-New 2-CG
   NFREE  =      0    steps in history (QN), initial steepest desc. (CG)
   ISIF   =      2    stress and relaxation
   IWAVPR =     10    prediction:  0-non 1-charg 2-wave 3-comb
   ISYM   =      2    0-nonsym 1-usesym 2-fastsym
   LCORR  =      T    Harris-Foulkes like correction to forces

   POTIM  = 0.5000    time-step for ionic-motion
   TEIN   =    0.0    initial temperature
   TEBEG  =    0.0;   TEEND  =   0.0 temperature during run
   SMASS  =  -3.00    Nose mass-parameter (am)
   estimated Nose-frequenzy (Omega)   =  0.10E-29 period in steps =****** mass=  -0.209E-26a.u.
   SCALEE = 1.0000    scale energy and forces
   NPACO  =    256;   APACO  = 16.0  distance and # of slots for P.C.
   PSTRESS=    0.0 pullay stress

  Mass of Ions in am
   POMASS =  24.30 16.00  1.00
  Ionic Valenz
   ZVAL   =   2.00  6.00  1.00
  Atomic Wigner-Seitz radii
   RWIGS  =  -1.00 -1.00 -1.00
  virtual crystal weights 
   VCA    =   1.00  1.00  1.00
   NELECT =     138.0000    total number of electrons
   NUPDOWN=      -1.0000    fix difference up-down

 DOS related values:
   EMIN   =  10.00;   EMAX   =-10.00  energy-range for DOS
   EFERMI =   0.00
   ISMEAR =    -5;   SIGMA  =   0.20  broadening in eV -4-tet -1-fermi 0-gaus

 Electronic relaxation 2 (details)
   IALGO  =     48    algorithm
   LDIAG  =      T    sub-space diagonalisation (order eigenvalues)
   LSUBROT=      F    optimize rotation matrix (better conditioning)
   TURBO    =      0    0=normal 1=particle mesh
   IRESTART =      0    0=no restart 2=restart with 2 vectors
   NREBOOT  =      0    no. of reboots
   NMIN     =      0    reboot dimension
   EREF     =   0.00    reference energy to select bands
   IMIX   =      4    mixing-type and parameters
     AMIX     =   0.40;   BMIX     =  1.00
     AMIX_MAG =   1.60;   BMIX_MAG =  1.00
     AMIN     =   0.10
     WC   =   100.;   INIMIX=   1;  MIXPRE=   1;  MAXMIX= -45

 Intra band minimization:
   WEIMIN = 0.0000     energy-eigenvalue tresh-hold
   EBREAK =  0.12E-07  absolut break condition
   DEPER  =   0.30     relativ break condition  

   TIME   =   0.40     timestep for ELM

  volume/ion in A,a.u.               =      40.95       276.36
  Fermi-wavevector in a.u.,A,eV,Ry     =   0.616828  1.165635  5.176694  0.380476
  Thomas-Fermi vector in A             =   1.674695
 
 Write flags
   LWAVE        =      F    write WAVECAR
   LDOWNSAMPLE  =      F    k-point downsampling of WAVECAR
   LCHARG       =      T    write CHGCAR
   LVTOT        =      F    write LOCPOT, total local potential
   LVHAR        =      T    write LOCPOT, Hartree potential only
   LELF         =      F    write electronic localiz. function (ELF)
   LORBIT       =      0    0 simple, 1 ext, 2 COOP (PROOUT), +10 PAW based schemes


 Dipole corrections
   LMONO  =      F    monopole corrections only (constant potential shift)
   LDIPOL =      T    correct potential (dipole corrections)
   IDIPOL =      3    1-x, 2-y, 3-z, 4-all directions 
   EPSILON=  1.0000000 bulk dielectric constant

 Exchange correlation treatment:
   GGA     =    BO    GGA type
   LEXCH   =    42    internal setting for exchange type
   VOSKOWN=      0    Vosko Wilk Nusair interpolation
   LHFCALC =     F    Hartree Fock is set to
   LHFONE  =     F    Hartree Fock one center treatment
   AEXX    =    0.0000 exact exchange contribution

 vdW DFT:
   LUSE_VDW   =     T    switch on vdW DFT
   Zab_VDW    =-.8491    correlation parameter
   PARAM1     =0.1833
   PARAM2     =0.2200
   PARAM3     =0.0000
   -- rVV10 --
   BPARAM     = 6.3000
   CPARAM     = 0.0093

 Linear response parameters
   LEPSILON=     F    determine dielectric tensor
   LRPA    =     F    only Hartree local field effects (RPA)
   LNABLA  =     F    use nabla operator in PAW spheres
   LVEL    =     F    velocity operator in full k-point grid
   LINTERFAST=   F  fast interpolation
   KINTER  =     0    interpolate to denser k-point grid
   CSHIFT  =0.1000    complex shift for real part using Kramers Kronig
   OMEGAMAX=  -1.0    maximum frequency
   DEG_THRESHOLD= 0.2000000E-02 threshold for treating states as degnerate
   RTIME   =   -0.100 relaxation time in fs
  (WPLASMAI=    0.000 imaginary part of plasma frequency in eV, 0.658/RTIME)
   DFIELD  = 0.0000000 0.0000000 0.0000000 field for delta impulse in time
 
 Orbital magnetization related:
   ORBITALMAG=     F  switch on orbital magnetization
   LCHIMAG   =     F  perturbation theory with respect to B field
   DQ        =  0.001000  dq finite difference perturbation B field
   LLRAUG    =     F  two centre corrections for induced B field



--------------------------------------------------------------------------------------------------------


 Static calculation
 charge density and potential will be updated during run
 non-spin polarized calculation
 RMM-DIIS sequential band-by-band
 perform sub-space diagonalisation
    before iterative eigenvector-optimisation
 modified Broyden-mixing scheme, WC =      100.0
 initial mixing is a Kerker type mixing with AMIX =  0.4000 and BMIX =      1.0000
 Hartree-type preconditioning will be used
 using additional bands           33
 real space projection scheme for non local part
 use partial core corrections
 calculate Harris-corrections to forces 
   (improved forces if not selfconsistent)
 use gradient corrections 
 use of overlap-Matrix (Vanderbilt PP)
 Fermi weights with tetrahedron method with Bloechl corrections


--------------------------------------------------------------------------------------------------------


  energy-cutoff  :      520.00
  volume of cell :     2579.96
      direct lattice vectors                 reciprocal lattice vectors
     9.555752754  0.000000000  0.000000000     0.104649003  0.060419130  0.000000000
    -4.777876377  8.275524637  0.000000000     0.000000000  0.120838260  0.000000000
     0.000000000  0.000000000 32.625095367     0.000000000  0.000000000  0.030651251

  length of vectors
     9.555752754  9.555752754 32.625095367     0.120838260  0.120838260  0.030651251


 
 k-points in units of 2pi/SCALE and weight: Auto                                    
   0.00000000  0.00000000  0.00000000       0.111
   0.03488300  0.02013971  0.00000000       0.222
   0.00000000  0.04027942  0.00000000       0.222
   0.03488300  0.06041913  0.00000000       0.222
  -0.03488300  0.02013971  0.00000000       0.222
 
 k-points in reciprocal lattice and weights: Auto                                    
   0.00000000  0.00000000  0.00000000       0.111
   0.33333333 -0.00000000  0.00000000       0.222
   0.00000000  0.33333333  0.00000000       0.222
   0.33333333  0.33333333  0.00000000       0.222
  -0.33333333  0.33333333  0.00000000       0.222
 
 position of ions in fractional coordinates (direct lattice) 
   0.00000000  0.00000000  0.00000000
   0.99936632  0.00177762  0.15829218
   0.00231510  0.01408479  0.33005254
   0.00000001  0.33333336  0.00000000
   0.00021789  0.33590117  0.15777477
   0.99157885  0.34177957  0.31249418
   0.00000002  0.66666672  0.00000000
   0.00057025  0.66968798  0.15784315
   0.99900166  0.67799725  0.31516272
   0.33333334  0.00000000  0.00000000
   0.33390537  0.00174055  0.15733659
   0.33153863  0.01280174  0.30959777
   0.33333335  0.33333336  0.00000000
   0.33152061  0.33322840  0.15713111
   0.32020900  0.33424916  0.31239521
   0.33333336  0.66666672  0.00000000
   0.33301507  0.67022356  0.15791535
   0.32210066  0.68192132  0.33017190
   0.66666668  0.00000000  0.00000000
   0.66558260  0.00043520  0.15790840
   0.67020580  0.01330986  0.31441480
   0.66666668  0.33333336  0.00000000
   0.66671668  0.33626383  0.15854859
   0.65942349  0.33383146  0.33307916
   0.66666670  0.66666672  0.00000000
   0.66936494  0.66951718  0.15758571
   0.65839877  0.68168826  0.31637817
   0.11111113  0.22222222  0.07982145
   0.10659967  0.22359099  0.23655608
   0.11111114  0.55555561  0.07982145
   0.11565686  0.56206543  0.23721465
   0.11111116  0.88888894  0.07982145
   0.10863820  0.89398445  0.23579137
   0.44444450  0.22222222  0.07982145
   0.44882134  0.23374167  0.23634825
   0.44444450  0.55555561  0.07982145
   0.44671676  0.55974904  0.23364198
   0.44444451  0.88888894  0.07982145
   0.44348291  0.88745109  0.23750416
   0.77777779  0.22222222  0.07982145
   0.77440907  0.22626230  0.23580725
   0.77777781  0.55555561  0.07982145
   0.77708882  0.55770594  0.23758894
   0.77777784  0.88888894  0.07982145
   0.77993553  0.89122783  0.23880946
   0.00010437  0.99963085  0.39638733
   0.29073812  0.96368797  0.41287388
   0.87949259  0.22271156  0.41588534
   0.60916704  0.27136690  0.40025499
   0.74641600  0.57028289  0.35264413
   0.35053101  0.70764936  0.39572093
   0.96769346  0.06967879  0.41085925
   0.09457733  0.00614079  0.41037269
   0.39260801  0.06796982  0.41082024
   0.25383560  0.93918310  0.38373256
   0.97890810  0.32786270  0.41820842
   0.86475944  0.20760902  0.38531072
   0.61784813  0.37303399  0.40942073
   0.69923974  0.26341834  0.41318536
   0.78782864  0.62050707  0.37944187
   0.43215723  0.55598221  0.33289333
   0.34071779  0.79909875  0.40711777
   0.45415013  0.72224793  0.40516334
 
 position of ions in cartesian coordinates  (Angst):
   0.00000000  0.00000000  0.00000000
   9.54120418  0.01471073  5.16429737
  -0.04517291  0.11655905 10.76799557
  -1.59262550  2.75850844  0.00000000
  -1.60281218  2.77975837  5.14741694
   7.84230184  2.82840521 10.19515237
  -3.18525100  5.51701689  0.00000000
  -3.19423723  5.54201936  5.14964779
   6.30682583  5.61078299 10.28221368
   3.18525100  0.00000000  0.00000000
   3.18240101  0.01440397  5.13312139
   3.10693600  0.10594112 10.10065676
   1.59262550  2.75850844  0.00000000
   1.57580484  2.75763983  5.12641731
   1.46283685  2.76608715 10.19192345
  -0.00000001  5.51701689  0.00000000
  -0.02003566  5.54645160  5.15200335
  -0.18022151  5.64325670 10.77188969
   6.37050200  0.00000000  0.00000000
   6.35806348  0.00360149  5.15177653
   6.34072802  0.11014611 10.25781296
   4.77787638  2.75850844  0.00000000
   4.76435274  2.78275964  5.17266291
   4.70628242  2.76263046 10.86673924
   3.18525100  5.51701689  0.00000000
   3.19741557  5.54060590  5.14124878
   3.03447367  5.64132796 10.32186782
   0.00000017  1.83900547  2.60418248
  -0.04965000  1.85033278  7.71766457
  -1.59262550  4.59751415  2.60418248
  -1.58029078  4.65138634  7.73915062
  -3.18525076  7.35602236  2.60418248
  -3.23322742  7.39819030  7.69271601
   3.18525147  1.83900547  2.60418248
   3.17203701  1.93433492  7.71088432
   1.59262574  4.59751415  2.60418248
   1.59430321  4.63221701  7.62259198
   0.00000039  7.35602236  2.60418248
  -0.00231851  7.34412334  7.74859593
   6.37050200  1.83900547  2.60418248
   6.31900827  1.87243928  7.69323407
   4.77787638  4.59751415  2.60418248
   4.76101865  4.61530923  7.75136191
   3.18525124  7.35602236  2.60418248
   3.19469470  7.37537786  7.79118138
  -4.77511533  8.27246976 12.93217441
  -1.82616035  7.97502351 13.47004986
   7.34012541  1.84305497 13.56829904
   4.52449215  2.24570348 13.05835713
   4.40782554  4.71939014 11.50504821
  -0.03147346  5.85616971 12.91043314
   8.91412284  0.57662851 13.40432220
   0.87441767  0.05081830 13.38844811
   3.42691372  0.56248592 13.40304949
  -2.06171047  7.77223286 12.51931139
   7.78771635  2.71323588 13.64408956
   7.27149719  1.71807359 12.57079914
   4.12169374  3.08705194 13.35739047
   5.42318183  2.17992498 13.48021172
   4.56358959  5.13502158 12.37932703
   1.47317333  4.60104449 10.86067666
  -0.56218010  6.61296138 13.28225617
   0.88893508  5.97698053 13.21849263
 


--------------------------------------------------------------------------------------------------------


 k-point  1 :   0.0000 0.0000 0.0000  plane waves:   69403
 k-point  2 :   0.3333-0.0000 0.0000  plane waves:   69509
 k-point  3 :   0.0000 0.3333 0.0000  plane waves:   69509
 k-point  4 :   0.3333 0.3333 0.0000  plane waves:   69474
 k-point  5 :  -0.3333 0.3333 0.0000  plane waves:   69509

 maximum and minimum number of plane-waves per node :      2924     2870

 maximum number of plane-waves:     69509
 maximum index in each direction: 
   IXMAX=   18   IYMAX=   17   IZMAX=   60
   IXMIN=  -18   IYMIN=  -18   IZMIN=  -60


 real space projection operators:
  total allocation   :      22587.62 KBytes
  max/ min on nodes  :       1305.19        545.15


 parallel 3D FFT for wavefunctions:
    minimum data exchange during FFTs selected (reduces bandwidth)
 parallel 3D FFT for charge:
    minimum data exchange during FFTs selected (reduces bandwidth)


 total amount of memory used by VASP MPI-rank0    62198. kBytes
=======================================================================

   base      :      30000. kBytes
   nonlr-proj:       6295. kBytes
   fftplans  :       6459. kBytes
   grid      :      11407. kBytes
   one-center:         24. kBytes
   wavefun   :       8013. kBytes
 
     INWAV:  cpu time    0.0002: real time    0.0017
 Broyden mixing: mesh for mixing (old mesh)
   NGX = 35   NGY = 35   NGZ =121
  (NGX  =144   NGY  =144   NGZ  =500)
  gives a total of 148225 points

 initial charge density was supplied:
 charge density of overlapping atoms calculated
 number of electron     138.0000000 magnetization 
 keeping initial charge density in first step


--------------------------------------------------------------------------------------------------------


 Maximum index for non-local projection operator          298
 Maximum index for augmentation-charges          837 (set IRDMAX)


--------------------------------------------------------------------------------------------------------


 First call to EWALD:  gamma=   0.129
 Maximum number of real-space cells 4x 4x 1
 Maximum number of reciprocal cells 2x 2x 6

    FEWALD:  cpu time    0.0020: real time    0.0020


--------------------------------------- Iteration      1(   1)  ---------------------------------------


vdW kernel read from vdw_kernel.bindat
  0.0000  0.2424  0.5071  0.7962  1.1119  1.4567  1.8333  2.2446  2.6937  3.1842
  3.7199  4.3049  4.9438  5.6415  6.4036  7.2358  8.1446  9.1372 10.2212 11.4050
 12.6979 14.1099 15.6519 17.3360 19.1751 21.1837 23.3773 25.7729 28.3892 31.2465
 34.3669 37.7748 41.4965 45.5611 50.0000
 
    POTLOK:  cpu time    5.3536: real time    5.5392
    SETDIJ:  cpu time    0.1342: real time    0.1343
    EDDIAG:  cpu time    0.4814: real time    0.4824
  RMM-DIIS:  cpu time    1.0557: real time    1.0563
    ORTHCH:  cpu time    0.0717: real time    0.0717
 BZINTS: Fermi energy:  9.569828;138.000000 electrons
         Band energy: 213.516099;  BLOECHL correction: -0.153859
       DOS:  cpu time    0.0030: real time    0.0030
    --------------------------------------------
      LOOP:  cpu time    7.0995: real time    7.2869

 eigenvalue-minimisations  :   510
 total energy-change (2. order) : 0.1246712E+04  (-0.2794310E+04)
 number of electron     138.0000000 magnetization 
 augmentation part      138.0000000 magnetization 

 DIPCOR: dipole corrections for dipol
 direction  3 min pos   365,
 dipolmoment           0.000000      0.000000     -0.000309 electrons x Angstroem
 Tr[quadrupol]     -1850.388141

 energy correction for charged system         0.000000 eV
 dipol+quadrupol energy correction           -0.000000 eV
 added-field ion interaction          0.001293 eV  (added to PSCEN)


 Free energy of the ion-electron system (eV)
  ---------------------------------------------------
  alpha Z        PSCENC =        63.16235624
  Ewald energy   TEWEN  =     13092.30961028
  -Hartree energ DENC   =    -16315.51873581
  -exchange      EXHF   =         0.00000000
  -V(xc)+E(xc)   XCENC  =     -2050.89043946
  PAW double counting   =      5135.15659847    -2719.01140655
  entropy T*S    EENTRO =         0.00000000
  eigenvalues    EBANDS =       213.51609873
  atomic energy  EATOM  =      3827.98814510
  Solvation  Ediel_sol  =         0.00000000
  ---------------------------------------------------
  free energy    TOTEN  =      1246.71222701 eV

  energy without entropy =     1246.71222701  energy(sigma->0) =     1246.71222701


--------------------------------------------------------------------------------------------------------




--------------------------------------- Iteration      1(   2)  ---------------------------------------


    EDDIAG:  cpu time    0.4905: real time    0.5080
  RMM-DIIS:  cpu time    1.0485: real time    1.0491
    ORTHCH:  cpu time    0.0702: real time    0.0702
 BZINTS: Fermi energy:  2.155374;138.000000 electrons
         Band energy:-486.353090;  BLOECHL correction: -0.093891
       DOS:  cpu time    0.0033: real time    0.0033
    --------------------------------------------
      LOOP:  cpu time    1.6124: real time    1.6306

 eigenvalue-minimisations  :   510
 total energy-change (2. order) :-0.6998692E+03  (-0.7595066E+03)
 number of electron     138.0000000 magnetization 
 augmentation part      138.0000000 magnetization 

 DIPCOR: dipole corrections for dipol
 direction  3 min pos   365,
 dipolmoment           0.000000      0.000000     -0.000309 electrons x Angstroem
 Tr[quadrupol]     -1850.388141

 energy correction for charged system         0.000000 eV
 dipol+quadrupol energy correction           -0.000000 eV
 added-field ion interaction          0.001293 eV  (added to PSCEN)


 Free energy of the ion-electron system (eV)
  ---------------------------------------------------
  alpha Z        PSCENC =        63.16235624
  Ewald energy   TEWEN  =     13092.30961028
  -Hartree energ DENC   =    -16315.51873581
  -exchange      EXHF   =         0.00000000
  -V(xc)+E(xc)   XCENC  =     -2050.89043946
  PAW double counting   =      5135.15659847    -2719.01140655
  entropy T*S    EENTRO =         0.00000000
  eigenvalues    EBANDS =      -486.35309049
  atomic energy  EATOM  =      3827.98814510
  Solvation  Ediel_sol  =         0.00000000
  ---------------------------------------------------
  free energy    TOTEN  =       546.84303778 eV

  energy without entropy =      546.84303778  energy(sigma->0) =      546.84303778


--------------------------------------------------------------------------------------------------------




--------------------------------------- Iteration      1(   3)  ---------------------------------------


    EDDIAG:  cpu time    0.4860: real time    0.5089
  RMM-DIIS:  cpu time    1.0514: real time    1.0517
    ORTHCH:  cpu time    0.0703: real time    0.0703
 BZINTS: Fermi energy:  0.337510;138.000000 electrons
         Band energy:-722.830556;  BLOECHL correction: -0.215539
       DOS:  cpu time    0.0033: real time    0.0033
    --------------------------------------------
      LOOP:  cpu time    1.6110: real time    1.6342

 eigenvalue-minimisations  :   510
 total energy-change (2. order) :-0.2364775E+03  (-0.3023931E+03)
 number of electron     138.0000000 magnetization 
 augmentation part      138.0000000 magnetization 

 DIPCOR: dipole corrections for dipol
 direction  3 min pos   365,
 dipolmoment           0.000000      0.000000     -0.000309 electrons x Angstroem
 Tr[quadrupol]     -1850.388141

 energy correction for charged system         0.000000 eV
 dipol+quadrupol energy correction           -0.000000 eV
 added-field ion interaction          0.001293 eV  (added to PSCEN)


 Free energy of the ion-electron system (eV)
  ---------------------------------------------------
  alpha Z        PSCENC =        63.16235624
  Ewald energy   TEWEN  =     13092.30961028
  -Hartree energ DENC   =    -16315.51873581
  -exchange      EXHF   =         0.00000000
  -V(xc)+E(xc)   XCENC  =     -2050.89043946
  PAW double counting   =      5135.15659847    -2719.01140655
  entropy T*S    EENTRO =         0.00000000
  eigenvalues    EBANDS =      -722.83055584
  atomic energy  EATOM  =      3827.98814510
  Solvation  Ediel_sol  =         0.00000000
  ---------------------------------------------------
  free energy    TOTEN  =       310.36557244 eV

  energy without entropy =      310.36557244  energy(sigma->0) =      310.36557244


--------------------------------------------------------------------------------------------------------




--------------------------------------- Iteration      1(   4)  ---------------------------------------


    EDDIAG:  cpu time    0.4860: real time    0.5082
  RMM-DIIS:  cpu time    1.0481: real time    1.0484
    ORTHCH:  cpu time    0.0704: real time    0.0704
 BZINTS: Fermi energy: -0.765390;138.000000 electrons
         Band energy:-897.482545;  BLOECHL correction: -0.194664
       DOS:  cpu time    0.0031: real time    0.0031
    --------------------------------------------
      LOOP:  cpu time    1.6075: real time    1.6301

 eigenvalue-minimisations  :   510
 total energy-change (2. order) :-0.1746520E+03  (-0.1500407E+03)
 number of electron     138.0000000 magnetization 
 augmentation part      138.0000000 magnetization 

 DIPCOR: dipole corrections for dipol
 direction  3 min pos   365,
 dipolmoment           0.000000      0.000000     -0.000309 electrons x Angstroem
 Tr[quadrupol]     -1850.388141

 energy correction for charged system         0.000000 eV
 dipol+quadrupol energy correction           -0.000000 eV
 added-field ion interaction          0.001293 eV  (added to PSCEN)


 Free energy of the ion-electron system (eV)
  ---------------------------------------------------
  alpha Z        PSCENC =        63.16235624
  Ewald energy   TEWEN  =     13092.30961028
  -Hartree energ DENC   =    -16315.51873581
  -exchange      EXHF   =         0.00000000
  -V(xc)+E(xc)   XCENC  =     -2050.89043946
  PAW double counting   =      5135.15659847    -2719.01140655
  entropy T*S    EENTRO =         0.00000000
  eigenvalues    EBANDS =      -897.48254510
  atomic energy  EATOM  =      3827.98814510
  Solvation  Ediel_sol  =         0.00000000
  ---------------------------------------------------
  free energy    TOTEN  =       135.71358318 eV

  energy without entropy =      135.71358318  energy(sigma->0) =      135.71358318


--------------------------------------------------------------------------------------------------------




--------------------------------------- Iteration      1(   5)  ---------------------------------------


    EDDIAG:  cpu time    0.4866: real time    0.5100
  RMM-DIIS:  cpu time    1.0490: real time    1.0511
    ORTHCH:  cpu time    0.0702: real time    0.0702
 BZINTS: Fermi energy: -1.233622;138.000000 electrons
         Band energy:***********;  BLOECHL correction: -0.136840
       DOS:  cpu time    0.0031: real time    0.0031
    --------------------------------------------
      LOOP:  cpu time    1.6089: real time    1.6344

 eigenvalue-minimisations  :   510
 total energy-change (2. order) :-0.1175613E+03  (-0.9393712E+02)
 number of electron     138.0000000 magnetization 
 augmentation part      138.0000000 magnetization 

 DIPCOR: dipole corrections for dipol
 direction  3 min pos   365,
 dipolmoment           0.000000      0.000000     -0.000309 electrons x Angstroem
 Tr[quadrupol]     -1850.388141

 energy correction for charged system         0.000000 eV
 dipol+quadrupol energy correction           -0.000000 eV
 added-field ion interaction          0.001293 eV  (added to PSCEN)


 Free energy of the ion-electron system (eV)
  ---------------------------------------------------
  alpha Z        PSCENC =        63.16235624
  Ewald energy   TEWEN  =     13092.30961028
  -Hartree energ DENC   =    -16315.51873581
  -exchange      EXHF   =         0.00000000
  -V(xc)+E(xc)   XCENC  =     -2050.89043946
  PAW double counting   =      5135.15659847    -2719.01140655
  entropy T*S    EENTRO =         0.00000000
  eigenvalues    EBANDS =     -1015.04386938
  atomic energy  EATOM  =      3827.98814510
  Solvation  Ediel_sol  =         0.00000000
  ---------------------------------------------------
  free energy    TOTEN  =        18.15225890 eV

  energy without entropy =       18.15225890  energy(sigma->0) =       18.15225890


--------------------------------------------------------------------------------------------------------




--------------------------------------- Iteration      1(   6)  ---------------------------------------


    EDDIAG:  cpu time    0.4888: real time    0.5120
  RMM-DIIS:  cpu time    1.0691: real time    1.0694
    ORTHCH:  cpu time    0.0706: real time    0.0706
 BZINTS: Fermi energy: -1.362377;138.000000 electrons
         Band energy:***********;  BLOECHL correction: -0.068758
       DOS:  cpu time    0.0031: real time    0.0030
    --------------------------------------------
      LOOP:  cpu time    1.6316: real time    1.6551

 eigenvalue-minimisations  :   510
 total energy-change (2. order) :-0.6323553E+02  (-0.4805022E+02)
 number of electron     138.0000000 magnetization 
 augmentation part      138.0000000 magnetization 

 DIPCOR: dipole corrections for dipol
 direction  3 min pos   365,
 dipolmoment           0.000000      0.000000     -0.000309 electrons x Angstroem
 Tr[quadrupol]     -1850.388141

 energy correction for charged system         0.000000 eV
 dipol+quadrupol energy correction           -0.000000 eV
 added-field ion interaction          0.001293 eV  (added to PSCEN)


 Free energy of the ion-electron system (eV)
  ---------------------------------------------------
  alpha Z        PSCENC =        63.16235624
  Ewald energy   TEWEN  =     13092.30961028
  -Hartree energ DENC   =    -16315.51873581
  -exchange      EXHF   =         0.00000000
  -V(xc)+E(xc)   XCENC  =     -2050.89043946
  PAW double counting   =      5135.15659847    -2719.01140655
  entropy T*S    EENTRO =         0.00000000
  eigenvalues    EBANDS =     -1078.27939555
  atomic energy  EATOM  =      3827.98814510
  Solvation  Ediel_sol  =         0.00000000
  ---------------------------------------------------
  free energy    TOTEN  =       -45.08326727 eV

  energy without entropy =      -45.08326727  energy(sigma->0) =      -45.08326727


--------------------------------------------------------------------------------------------------------




--------------------------------------- Iteration      1(   7)  ---------------------------------------


    EDDIAG:  cpu time    0.4864: real time    0.5115
  RMM-DIIS:  cpu time    1.0583: real time    1.0588
    ORTHCH:  cpu time    0.0703: real time    0.0704
 BZINTS: Fermi energy: -1.420301;138.000000 electrons
         Band energy:***********;  BLOECHL correction: -0.068248
       DOS:  cpu time    0.0031: real time    0.0031
    --------------------------------------------
      LOOP:  cpu time    1.6180: real time    1.6437

 eigenvalue-minimisations  :   510
 total energy-change (2. order) :-0.2647632E+02  (-0.1966961E+02)
 number of electron     138.0000000 magnetization 
 augmentation part      138.0000000 magnetization 

 DIPCOR: dipole corrections for dipol
 direction  3 min pos   365,
 dipolmoment           0.000000      0.000000     -0.000309 electrons x Angstroem
 Tr[quadrupol]     -1850.388141

 energy correction for charged system         0.000000 eV
 dipol+quadrupol energy correction           -0.000000 eV
 added-field ion interaction          0.001293 eV  (added to PSCEN)


 Free energy of the ion-electron system (eV)
  ---------------------------------------------------
  alpha Z        PSCENC =        63.16235624
  Ewald energy   TEWEN  =     13092.30961028
  -Hartree energ DENC   =    -16315.51873581
  -exchange      EXHF   =         0.00000000
  -V(xc)+E(xc)   XCENC  =     -2050.89043946
  PAW double counting   =      5135.15659847    -2719.01140655
  entropy T*S    EENTRO =         0.00000000
  eigenvalues    EBANDS =     -1104.75571351
  atomic energy  EATOM  =      3827.98814510
  Solvation  Ediel_sol  =         0.00000000
  ---------------------------------------------------
  free energy    TOTEN  =       -71.55958524 eV

  energy without entropy =      -71.55958524  energy(sigma->0) =      -71.55958524


--------------------------------------------------------------------------------------------------------




--------------------------------------- Iteration      1(   8)  ---------------------------------------


    EDDIAG:  cpu time    0.4892: real time    0.5145
  RMM-DIIS:  cpu time    1.0461: real time    1.0475
    ORTHCH:  cpu time    0.0716: real time    0.0717
 BZINTS: Fermi energy: -1.455463;138.000000 electrons
         Band energy:***********;  BLOECHL correction: -0.068191
       DOS:  cpu time    0.0028: real time    0.0028
    --------------------------------------------
      LOOP:  cpu time    1.6097: real time    1.6365

 eigenvalue-minimisations  :   510
 total energy-change (2. order) :-0.6942174E+01  (-0.5703053E+01)
 number of electron     138.0000000 magnetization 
 augmentation part      138.0000000 magnetization 

 DIPCOR: dipole corrections for dipol
 direction  3 min pos   365,
 dipolmoment           0.000000      0.000000     -0.000309 electrons x Angstroem
 Tr[quadrupol]     -1850.388141

 energy correction for charged system         0.000000 eV
 dipol+quadrupol energy correction           -0.000000 eV
 added-field ion interaction          0.001293 eV  (added to PSCEN)


 Free energy of the ion-electron system (eV)
  ---------------------------------------------------
  alpha Z        PSCENC =        63.16235624
  Ewald energy   TEWEN  =     13092.30961028
  -Hartree energ DENC   =    -16315.51873581
  -exchange      EXHF   =         0.00000000
  -V(xc)+E(xc)   XCENC  =     -2050.89043946
  PAW double counting   =      5135.15659847    -2719.01140655
  entropy T*S    EENTRO =         0.00000000
  eigenvalues    EBANDS =     -1111.69788794
  atomic energy  EATOM  =      3827.98814510
  Solvation  Ediel_sol  =         0.00000000
  ---------------------------------------------------
  free energy    TOTEN  =       -78.50175966 eV

  energy without entropy =      -78.50175966  energy(sigma->0) =      -78.50175966


--------------------------------------------------------------------------------------------------------




--------------------------------------- Iteration      1(   9)  ---------------------------------------


    EDDIAG:  cpu time    0.4928: real time    0.5097
  RMM-DIIS:  cpu time    2.7197: real time    2.7207
    ORTHCH:  cpu time    0.0710: real time    0.0710
 BZINTS: Fermi energy: -1.486806;138.000000 electrons
         Band energy:***********;  BLOECHL correction: -0.064879
       DOS:  cpu time    0.0030: real time    0.0030
    --------------------------------------------
      LOOP:  cpu time    3.2866: real time    3.3044

 eigenvalue-minimisations  :  1466
 total energy-change (2. order) :-0.2124817E+01  (-0.2025335E+01)
 number of electron     138.0000000 magnetization 
 augmentation part      138.0000000 magnetization 

 DIPCOR: dipole corrections for dipol
 direction  3 min pos   365,
 dipolmoment           0.000000      0.000000     -0.000309 electrons x Angstroem
 Tr[quadrupol]     -1850.388141

 energy correction for charged system         0.000000 eV
 dipol+quadrupol energy correction           -0.000000 eV
 added-field ion interaction          0.001293 eV  (added to PSCEN)


 Free energy of the ion-electron system (eV)
  ---------------------------------------------------
  alpha Z        PSCENC =        63.16235624
  Ewald energy   TEWEN  =     13092.30961028
  -Hartree energ DENC   =    -16315.51873581
  -exchange      EXHF   =         0.00000000
  -V(xc)+E(xc)   XCENC  =     -2050.89043946
  PAW double counting   =      5135.15659847    -2719.01140655
  entropy T*S    EENTRO =         0.00000000
  eigenvalues    EBANDS =     -1113.82270473
  atomic energy  EATOM  =      3827.98814510
  Solvation  Ediel_sol  =         0.00000000
  ---------------------------------------------------
  free energy    TOTEN  =       -80.62657645 eV

  energy without entropy =      -80.62657645  energy(sigma->0) =      -80.62657645


--------------------------------------------------------------------------------------------------------




--------------------------------------- Iteration      1(  10)  ---------------------------------------


    EDDIAG:  cpu time    0.4863: real time    0.5088
  RMM-DIIS:  cpu time    3.1906: real time    3.1931
    ORTHCH:  cpu time    0.0720: real time    0.0720
 BZINTS: Fermi energy: -1.492026;138.000000 electrons
         Band energy:***********;  BLOECHL correction: -0.063742
       DOS:  cpu time    0.0029: real time    0.0029
    --------------------------------------------
      LOOP:  cpu time    3.7518: real time    3.7768

 eigenvalue-minimisations  :  1749
 total energy-change (2. order) :-0.2836065E+00  (-0.2988703E+00)
 number of electron     138.0000000 magnetization 
 augmentation part      138.0000000 magnetization 

 DIPCOR: dipole corrections for dipol
 direction  3 min pos   365,
 dipolmoment           0.000000      0.000000     -0.000309 electrons x Angstroem
 Tr[quadrupol]     -1850.388141

 energy correction for charged system         0.000000 eV
 dipol+quadrupol energy correction           -0.000000 eV
 added-field ion interaction          0.001293 eV  (added to PSCEN)


 Free energy of the ion-electron system (eV)
  ---------------------------------------------------
  alpha Z        PSCENC =        63.16235624
  Ewald energy   TEWEN  =     13092.30961028
  -Hartree energ DENC   =    -16315.51873581
  -exchange      EXHF   =         0.00000000
  -V(xc)+E(xc)   XCENC  =     -2050.89043946
  PAW double counting   =      5135.15659847    -2719.01140655
  entropy T*S    EENTRO =         0.00000000
  eigenvalues    EBANDS =     -1114.10631121
  atomic energy  EATOM  =      3827.98814510
  Solvation  Ediel_sol  =         0.00000000
  ---------------------------------------------------
  free energy    TOTEN  =       -80.91018293 eV

  energy without entropy =      -80.91018293  energy(sigma->0) =      -80.91018293


--------------------------------------------------------------------------------------------------------




--------------------------------------- Iteration      1(  11)  ---------------------------------------


    EDDIAG:  cpu time    0.4853: real time    0.5094
  RMM-DIIS:  cpu time    3.1043: real time    3.1052
    ORTHCH:  cpu time    0.0718: real time    0.0718
 BZINTS: Fermi energy: -1.492619;138.000000 electrons
         Band energy:***********;  BLOECHL correction: -0.063515
       DOS:  cpu time    0.0030: real time    0.0030
    --------------------------------------------
      LOOP:  cpu time    3.6644: real time    3.6893

 eigenvalue-minimisations  :  1702
 total energy-change (2. order) :-0.1571879E-03  (-0.1606230E-01)
 number of electron     138.0000000 magnetization 
 augmentation part      138.0000000 magnetization 

 DIPCOR: dipole corrections for dipol
 direction  3 min pos   365,
 dipolmoment           0.000000      0.000000     -0.000309 electrons x Angstroem
 Tr[quadrupol]     -1850.388141

 energy correction for charged system         0.000000 eV
 dipol+quadrupol energy correction           -0.000000 eV
 added-field ion interaction          0.001293 eV  (added to PSCEN)


 Free energy of the ion-electron system (eV)
  ---------------------------------------------------
  alpha Z        PSCENC =        63.16235624
  Ewald energy   TEWEN  =     13092.30961028
  -Hartree energ DENC   =    -16315.51873581
  -exchange      EXHF   =         0.00000000
  -V(xc)+E(xc)   XCENC  =     -2050.89043946
  PAW double counting   =      5135.15659847    -2719.01140655
  entropy T*S    EENTRO =         0.00000000
  eigenvalues    EBANDS =     -1114.10646839
  atomic energy  EATOM  =      3827.98814510
  Solvation  Ediel_sol  =         0.00000000
  ---------------------------------------------------
  free energy    TOTEN  =       -80.91034012 eV

  energy without entropy =      -80.91034012  energy(sigma->0) =      -80.91034012


--------------------------------------------------------------------------------------------------------




--------------------------------------- Iteration      1(  12)  ---------------------------------------


    EDDIAG:  cpu time    0.4861: real time    0.5117
  RMM-DIIS:  cpu time    3.2581: real time    3.2621
    ORTHCH:  cpu time    0.0715: real time    0.0716
 BZINTS: Fermi energy: -1.492717;138.000000 electrons
         Band energy:***********;  BLOECHL correction: -0.063515
       DOS:  cpu time    0.0030: real time    0.0030
    CHARGE:  cpu time    0.1282: real time    0.1283
    MIXING:  cpu time    0.0050: real time    0.0050
    --------------------------------------------
      LOOP:  cpu time    3.9519: real time    3.9817

 eigenvalue-minimisations  :  1793
 total energy-change (2. order) :-0.2585431E-02  (-0.3228886E-02)
 number of electron     138.0000002 magnetization 
 augmentation part        5.2554128 magnetization 

 DIPCOR: dipole corrections for dipol
 direction  3 min pos   365,
 dipolmoment           0.000000      0.000000     -0.000309 electrons x Angstroem
 Tr[quadrupol]     -1850.388141

 energy correction for charged system         0.000000 eV
 dipol+quadrupol energy correction           -0.000000 eV
 added-field ion interaction          0.001293 eV  (added to PSCEN)


 Broyden mixing:
  rms(total) = 0.20089E+01    rms(broyden)= 0.20077E+01
  rms(prec ) = 0.21046E+01
  weight for this iteration     100.00

 Free energy of the ion-electron system (eV)
  ---------------------------------------------------
  alpha Z        PSCENC =        63.16235624
  Ewald energy   TEWEN  =     13092.30961028
  -Hartree energ DENC   =    -16315.51873581
  -exchange      EXHF   =         0.00000000
  -V(xc)+E(xc)   XCENC  =     -2050.89043946
  PAW double counting   =      5135.15659847    -2719.01140655
  entropy T*S    EENTRO =         0.00000000
  eigenvalues    EBANDS =     -1114.10905382
  atomic energy  EATOM  =      3827.98814510
  Solvation  Ediel_sol  =         0.00000000
  ---------------------------------------------------
  free energy    TOTEN  =       -80.91292555 eV

  energy without entropy =      -80.91292555  energy(sigma->0) =      -80.91292555


--------------------------------------------------------------------------------------------------------




--------------------------------------- Iteration      1(  13)  ---------------------------------------


    POTLOK:  cpu time    4.9750: real time    4.9963
    SETDIJ:  cpu time    0.1343: real time    0.1343
    EDDIAG:  cpu time    0.4852: real time    0.4864
  RMM-DIIS:  cpu time    2.6079: real time    2.6095
    ORTHCH:  cpu time    0.0710: real time    0.0710
 BZINTS: Fermi energy: -1.000623;138.000000 electrons
         Band energy:-932.857489;  BLOECHL correction: -0.055173
       DOS:  cpu time    0.0029: real time    0.0029
    CHARGE:  cpu time    0.1276: real time    0.1276
    MIXING:  cpu time    0.0045: real time    0.0046
    --------------------------------------------
      LOOP:  cpu time    8.4084: real time    8.4326

 eigenvalue-minimisations  :  1430
 total energy-change (2. order) : 0.1063560E+02  (-0.6096127E+01)
 number of electron     138.0000002 magnetization 
 augmentation part        4.4746573 magnetization 

 DIPCOR: dipole corrections for dipol
 direction  3 min pos   365,
 dipolmoment           0.000000      0.000000      0.205884 electrons x Angstroem
 Tr[quadrupol]     -1862.519452

 energy correction for charged system         0.000000 eV
 dipol+quadrupol energy correction           -0.001486 eV
 added-field ion interaction         -0.861481 eV  (added to PSCEN)


 Broyden mixing:
  rms(total) = 0.78120E+00    rms(broyden)= 0.78066E+00
  rms(prec ) = 0.87128E+00
  weight for this iteration     100.00

 eigenvalues of (default mixing * dielectric matrix)
  average eigenvalue GAMMA=   0.9471
  0.9471

 Free energy of the ion-electron system (eV)
  ---------------------------------------------------
  alpha Z        PSCENC =        62.29809590
  Ewald energy   TEWEN  =     13092.30961028
  -Hartree energ DENC   =    -16492.59723337
  -exchange      EXHF   =         0.00000000
  -V(xc)+E(xc)   XCENC  =     -2041.01431037
  PAW double counting   =      5556.75543899    -3143.15958046
  entropy T*S    EENTRO =         0.00000000
  eigenvalues    EBANDS =      -932.85748851
  atomic energy  EATOM  =      3827.98814510
  Solvation  Ediel_sol  =         0.00000000
  ---------------------------------------------------
  free energy    TOTEN  =       -70.27732244 eV

  energy without entropy =      -70.27732244  energy(sigma->0) =      -70.27732244


--------------------------------------------------------------------------------------------------------




--------------------------------------- Iteration      1(  14)  ---------------------------------------


    POTLOK:  cpu time    4.9114: real time    4.9389
    SETDIJ:  cpu time    0.1337: real time    0.1338
    EDDIAG:  cpu time    0.4776: real time    0.4781
  RMM-DIIS:  cpu time    3.0211: real time    3.0223
    ORTHCH:  cpu time    0.0710: real time    0.0711
 BZINTS: Fermi energy: -0.756260;138.000000 electrons
         Band energy:-963.919775;  BLOECHL correction: -0.097356
       DOS:  cpu time    0.0029: real time    0.0029
    CHARGE:  cpu time    0.1273: real time    0.1274
    MIXING:  cpu time    0.0036: real time    0.0036
    --------------------------------------------
      LOOP:  cpu time    8.7487: real time    8.7780

 eigenvalue-minimisations  :  1664
 total energy-change (2. order) :-0.8772573E+01  (-0.4631949E+00)
 number of electron     138.0000002 magnetization 
 augmentation part        4.4197367 magnetization 

 DIPCOR: dipole corrections for dipol
 direction  3 min pos   377,
 dipolmoment           0.000000      0.000000     -1.425683 electrons x Angstroem
 Tr[quadrupol]     -1853.449443

 energy correction for charged system         0.000000 eV
 dipol+quadrupol energy correction           -0.071279 eV
 added-field ion interaction         -4.839325 eV  (added to PSCEN)


 Broyden mixing:
  rms(total) = 0.73752E+00    rms(broyden)= 0.73749E+00
  rms(prec ) = 0.19303E+01
  weight for this iteration     100.00

 eigenvalues of (default mixing * dielectric matrix)
  average eigenvalue GAMMA=   0.9656
  0.9656  0.9656

 Free energy of the ion-electron system (eV)
  ---------------------------------------------------
  alpha Z        PSCENC =        58.25045907
  Ewald energy   TEWEN  =     13092.30961028
  -Hartree energ DENC   =    -16468.32269172
  -exchange      EXHF   =         0.00000000
  -V(xc)+E(xc)   XCENC  =     -2038.94058182
  PAW double counting   =      5723.01047909    -3309.42554026
  entropy T*S    EENTRO =         0.00000000
  eigenvalues    EBANDS =      -963.91977473
  atomic energy  EATOM  =      3827.98814510
  Solvation  Ediel_sol  =         0.00000000
  ---------------------------------------------------
  free energy    TOTEN  =       -79.04989498 eV

  energy without entropy =      -79.04989498  energy(sigma->0) =      -79.04989498


--------------------------------------------------------------------------------------------------------




--------------------------------------- Iteration      1(  15)  ---------------------------------------


    POTLOK:  cpu time    5.1781: real time    5.2048
    SETDIJ:  cpu time    0.1331: real time    0.1331
    EDDIAG:  cpu time    0.4835: real time    0.4841
  RMM-DIIS:  cpu time    2.6071: real time    2.6080
    ORTHCH:  cpu time    0.0698: real time    0.0698
 BZINTS: Fermi energy: -1.050410;138.000000 electrons
         Band energy:-916.885428;  BLOECHL correction: -0.061205
       DOS:  cpu time    0.0031: real time    0.0031
    CHARGE:  cpu time    0.1295: real time    0.1295
    MIXING:  cpu time    0.0036: real time    0.0036
    --------------------------------------------
      LOOP:  cpu time    8.6079: real time    8.6359

 eigenvalue-minimisations  :  1414
 total energy-change (2. order) : 0.8989416E+01  (-0.1615148E+00)
 number of electron     138.0000002 magnetization 
 augmentation part        4.3736055 magnetization 

 DIPCOR: dipole corrections for dipol
 direction  3 min pos   385,
 dipolmoment           0.000000      0.000000      0.083880 electrons x Angstroem
 Tr[quadrupol]     -1862.606435

 energy correction for charged system         0.000000 eV
 dipol+quadrupol energy correction           -0.000247 eV
 added-field ion interaction          0.708519 eV  (added to PSCEN)


 Broyden mixing:
  rms(total) = 0.50896E+00    rms(broyden)= 0.50894E+00
  rms(prec ) = 0.69011E+00
  weight for this iteration     100.00

 eigenvalues of (default mixing * dielectric matrix)
  average eigenvalue GAMMA=   1.0720
  1.9096  1.1585  0.1478

 Free energy of the ion-electron system (eV)
  ---------------------------------------------------
  alpha Z        PSCENC =        63.86933493
  Ewald energy   TEWEN  =     13092.30961028
  -Hartree energ DENC   =    -16512.35771330
  -exchange      EXHF   =         0.00000000
  -V(xc)+E(xc)   XCENC  =     -2038.58574354
  PAW double counting   =      5751.98209245    -3338.38077783
  entropy T*S    EENTRO =         0.00000000
  eigenvalues    EBANDS =      -916.88542753
  atomic energy  EATOM  =      3827.98814510
  Solvation  Ediel_sol  =         0.00000000
  ---------------------------------------------------
  free energy    TOTEN  =       -70.06047943 eV

  energy without entropy =      -70.06047943  energy(sigma->0) =      -70.06047943


--------------------------------------------------------------------------------------------------------




--------------------------------------- Iteration      1(  16)  ---------------------------------------


    POTLOK:  cpu time    4.9290: real time    4.9498
    SETDIJ:  cpu time    0.1340: real time    0.1341
    EDDIAG:  cpu time    0.4754: real time    0.4759
  RMM-DIIS:  cpu time    2.6591: real time    2.6601
    ORTHCH:  cpu time    0.0711: real time    0.0711
 BZINTS: Fermi energy: -0.719451;138.000000 electrons
         Band energy:-899.421937;  BLOECHL correction: -0.077122
       DOS:  cpu time    0.0030: real time    0.0030
    CHARGE:  cpu time    0.1289: real time    0.1290
    MIXING:  cpu time    0.0050: real time    0.0050
    --------------------------------------------
      LOOP:  cpu time    8.4055: real time    8.4278

 eigenvalue-minimisations  :  1450
 total energy-change (2. order) : 0.6449969E+00  (-0.1087324E+00)
 number of electron     138.0000002 magnetization 
 augmentation part        4.4397521 magnetization 

 DIPCOR: dipole corrections for dipol
 direction  3 min pos   389,
 dipolmoment           0.000000      0.000000     -0.246294 electrons x Angstroem
 Tr[quadrupol]     -1865.896962

 energy correction for charged system         0.000000 eV
 dipol+quadrupol energy correction           -0.002127 eV
 added-field ion interaction         -2.702605 eV  (added to PSCEN)


 Broyden mixing:
  rms(total) = 0.20107E+00    rms(broyden)= 0.20105E+00
  rms(prec ) = 0.28947E+00
  weight for this iteration     100.00

 eigenvalues of (default mixing * dielectric matrix)
  average eigenvalue GAMMA=   1.0742
  2.4134  0.9364  0.7957  0.1512

 Free energy of the ion-electron system (eV)
  ---------------------------------------------------
  alpha Z        PSCENC =        60.45633084
  Ewald energy   TEWEN  =     13092.30961028
  -Hartree energ DENC   =    -16527.47133056
  -exchange      EXHF   =         0.00000000
  -V(xc)+E(xc)   XCENC  =     -2037.07815335
  PAW double counting   =      5886.34259811    -3472.54074563
  entropy T*S    EENTRO =         0.00000000
  eigenvalues    EBANDS =      -899.42193731
  atomic energy  EATOM  =      3827.98814510
  Solvation  Ediel_sol  =         0.00000000
  ---------------------------------------------------
  free energy    TOTEN  =       -69.41548252 eV

  energy without entropy =      -69.41548252  energy(sigma->0) =      -69.41548252


--------------------------------------------------------------------------------------------------------




--------------------------------------- Iteration      1(  17)  ---------------------------------------


    POTLOK:  cpu time    4.9313: real time    4.9565
    SETDIJ:  cpu time    0.1331: real time    0.1332
    EDDIAG:  cpu time    0.4725: real time    0.4748
  RMM-DIIS:  cpu time    2.5014: real time    2.5025
    ORTHCH:  cpu time    0.0713: real time    0.0713
 BZINTS: Fermi energy: -0.678905;138.000000 electrons
         Band energy:-890.911375;  BLOECHL correction: -0.087393
       DOS:  cpu time    0.0030: real time    0.0030
    CHARGE:  cpu time    0.1237: real time    0.1237
    MIXING:  cpu time    0.0039: real time    0.0039
    --------------------------------------------
      LOOP:  cpu time    8.2402: real time    8.2687

 eigenvalue-minimisations  :  1359
 total energy-change (2. order) : 0.1521881E+00  (-0.2935507E-01)
 number of electron     138.0000002 magnetization 
 augmentation part        4.4406211 magnetization 

 DIPCOR: dipole corrections for dipol
 direction  3 min pos   388,
 dipolmoment           0.000000      0.000000     -0.465684 electrons x Angstroem
 Tr[quadrupol]     -1864.836146

[...]
  0.015  -0.001   0.000   0.052   0.000  -0.000  -0.003  -0.000  -0.000  -0.000   0.011  -0.000   0.000
  0.001   0.000  -0.001   0.000   0.078   0.000  -0.000  -0.004  -0.003  -0.000  -0.000   0.004   0.000
  0.000   0.000  -0.004  -0.000   0.000   0.000   0.000  -0.000  -0.000  -0.000  -0.000  -0.000   0.000
 -0.003   0.000  -0.000  -0.003  -0.000   0.000   0.000   0.000   0.000   0.000  -0.001   0.000  -0.000
 -0.000  -0.000   0.000  -0.000  -0.004  -0.000   0.000   0.000   0.000   0.000   0.000  -0.000  -0.000
  0.001   0.000   0.000  -0.000  -0.003  -0.000   0.000   0.000   0.003  -0.000   0.000  -0.000   0.000
 -0.000   0.000   0.004  -0.000  -0.000  -0.000   0.000   0.000  -0.000   0.002   0.000   0.000  -0.000
 -0.021   0.000   0.000   0.011  -0.000  -0.000  -0.001   0.000   0.000   0.000   0.004  -0.000   0.000
  0.000   0.000   0.000  -0.000   0.004  -0.000   0.000  -0.000  -0.000   0.000  -0.000   0.002  -0.000
 -0.001  -0.000  -0.003   0.000   0.000   0.000  -0.000  -0.000   0.000  -0.000   0.000  -0.000   0.003


------------------------ aborting loop because EDIFF is reached ----------------------------------------


    CHARGE:  cpu time    0.3551: real time    0.3551
    FORLOC:  cpu time    0.0387: real time    0.0387
    FORNL :  cpu time    0.6959: real time    0.6961
    STRESS:  cpu time    2.1026: real time    2.1031
    FORCOR:  cpu time    4.9471: real time    4.9500
    FORHAR:  cpu time    0.0745: real time    0.0745
    MIXING:  cpu time    0.0094: real time    0.0094
    OFIELD:  cpu time    0.0001: real time    0.0001

  FORCE on cell =-STRESS in cart. coord.  units (eV):
  Direction    XX          YY          ZZ          XY          YZ          ZX
  --------------------------------------------------------------------------------------
  Alpha Z    63.16106    63.16106    63.16106
  Ewald   14617.54082 14421.84921-15947.09037  -154.21091    96.11907   101.44396
  Hartree 15506.02501 15368.68186-14315.75318   -97.57377    -0.71565    33.85509
  E(xc)    -445.62747  -445.99007  -444.17784    -0.10009     0.68259     0.24969
  Local  -31083.27957-30764.67326 29307.59613   246.84826   -55.64973  -112.50067
  n-local   119.08997   119.15055   109.64960    -0.65093     0.54141     1.13356
  augment    44.27118    45.15930    44.98380     0.28792    -2.69104    -1.58031
  Kinetic  1169.77667  1185.10489  1181.31456     5.62522   -39.09344   -22.00465
  Fock        0.00000     0.00000     0.00000     0.00000     0.00000     0.00000
  -------------------------------------------------------------------------------------
  Total      -9.04234    -7.55647    -0.31625     0.22570    -0.80679     0.59667
  in kB      -5.61538    -4.69264    -0.19639     0.14016    -0.50102     0.37054
  external pressure =       -3.50 kB  Pullay stress =        0.00 kB


 VOLUME and BASIS-vectors are now :
 -----------------------------------------------------------------------------
  energy-cutoff  :      520.00
  volume of cell :     2579.96
      direct lattice vectors                 reciprocal lattice vectors
     9.555752754  0.000000000  0.000000000     0.104649003  0.060419130  0.000000000
    -4.777876377  8.275524637  0.000000000     0.000000000  0.120838260  0.000000000
     0.000000000  0.000000000 32.625095367     0.000000000  0.000000000  0.030651251

  length of vectors
     9.555752754  9.555752754 32.625095367     0.120838260  0.120838260  0.030651251


 FORCES acting on ions
    electron-ion (+dipol)            ewald-force                    non-local-force                 convergence-correction
 -----------------------------------------------------------------------------------------------
   0.433E-01 -.430E-01 0.123E+03   -.907E-02 0.495E-02 -.122E+03   -.222E-01 0.257E-01 -.817E+00   -.101E-05 0.705E-06 -.113E-04
   0.284E+00 -.271E+00 0.569E+02   -.194E+00 0.256E+00 -.570E+02   -.727E-01 0.214E-01 0.107E+00   0.275E-06 0.210E-05 0.101E-03
   0.189E+01 -.568E+01 -.162E+01   -.183E+01 0.583E+01 0.885E+00   -.755E-01 -.123E+00 0.715E+00   -.179E-05 0.545E-07 0.160E-04
   -.435E-01 0.163E-02 0.123E+03   -.595E-02 -.545E-02 -.122E+03   0.140E-01 -.636E-02 -.872E+00   -.192E-05 -.622E-06 -.110E-04
   -.938E-02 0.244E-01 0.568E+02   0.568E-01 -.612E-01 -.569E+02   -.487E-01 0.424E-01 0.128E+00   -.122E-05 -.181E-05 0.100E-03
   -.641E+01 -.243E+01 -.134E+02   0.632E+01 0.245E+01 0.133E+02   0.965E-01 -.310E-01 0.135E+00   -.285E-05 -.225E-06 0.338E-04
   0.169E-01 0.760E-01 0.123E+03   0.235E-02 -.702E-02 -.122E+03   0.537E-02 -.415E-01 -.830E+00   -.143E-06 -.186E-05 -.115E-04
   -.324E+00 0.159E+00 0.572E+02   0.297E+00 -.108E+00 -.572E+02   0.291E-01 -.376E-01 0.860E-01   -.499E-06 -.111E-05 0.101E-03
   -.165E+02 -.459E+01 -.952E+01   0.173E+02 0.511E+01 0.854E+01   -.966E+00 -.565E+00 0.105E+01   -.146E-05 -.310E-05 0.301E-04
   -.372E-01 -.159E-01 0.123E+03   0.582E-02 0.115E-02 -.122E+03   0.158E-01 0.686E-02 -.836E+00   0.215E-05 0.130E-05 -.109E-04
   -.126E+00 -.776E-01 0.568E+02   0.105E+00 0.253E-01 -.570E+02   0.415E-02 0.460E-01 0.179E+00   -.630E-07 0.163E-05 0.100E-03
   0.260E+00 -.366E+00 -.469E+01   -.361E+00 0.297E+00 0.424E+01   0.609E-01 0.440E-01 0.455E+00   -.393E-06 0.295E-05 0.364E-04
   0.262E-01 -.168E-01 0.123E+03   -.470E-02 0.336E-03 -.122E+03   -.189E-01 0.729E-02 -.849E+00   0.600E-06 0.374E-06 -.112E-04
   0.296E+00 0.382E-01 0.573E+02   -.285E+00 -.107E+00 -.574E+02   -.605E-02 0.546E-01 0.641E-01   -.188E-07 -.224E-05 0.100E-03
   0.611E+01 0.283E+01 -.185E+02   -.616E+01 -.366E+01 0.179E+02   0.785E-01 0.836E+00 0.689E+00   0.862E-06 -.203E-05 0.335E-04
   -.476E-01 -.570E-02 0.123E+03   -.288E-03 -.115E-02 -.122E+03   0.255E-01 0.739E-03 -.764E+00   0.136E-05 0.687E-06 -.109E-04
   0.358E-01 0.158E+00 0.571E+02   -.774E-01 -.698E-01 -.571E+02   0.297E-01 -.744E-01 0.217E-01   -.109E-05 -.342E-07 0.990E-04
   0.332E+01 0.676E+01 -.523E+01   -.376E+01 -.655E+01 0.479E+01   0.409E+00 -.231E+00 0.433E+00   -.137E-05 -.121E-05 0.179E-04
   0.879E-02 0.691E-01 0.123E+03   0.332E-02 0.823E-02 -.122E+03   -.817E-02 -.270E-01 -.847E+00   -.107E-05 0.922E-06 -.114E-04
   -.177E+00 -.936E-01 0.566E+02   0.108E+00 0.898E-01 -.568E+02   0.619E-01 -.697E-03 0.191E+00   -.167E-06 0.329E-05 0.101E-03
   -.111E+01 0.290E+01 -.138E+02   0.124E+01 -.300E+01 0.135E+02   -.117E+00 0.970E-01 0.260E+00   0.264E-05 0.199E-05 0.310E-04
   0.565E-01 -.814E-01 0.123E+03   0.108E-01 -.522E-02 -.122E+03   -.323E-01 0.453E-01 -.789E+00   0.123E-05 -.134E-05 -.122E-04
   -.214E+00 0.304E+00 0.573E+02   0.215E+00 -.281E+00 -.574E+02   -.395E-02 -.146E-01 0.800E-01   0.113E-05 -.856E-06 0.102E-03
   -.405E+01 0.215E+02 0.274E+01   0.407E+01 -.217E+02 -.320E+01   -.245E-01 0.101E+00 0.451E+00   0.196E-05 0.780E-07 0.102E-04
   -.378E-01 -.113E-01 0.123E+03   -.206E-02 0.382E-02 -.122E+03   0.316E-01 0.236E-01 -.783E+00   -.120E-05 -.153E-06 -.119E-04
   0.238E+00 -.244E+00 0.576E+02   -.213E+00 0.257E+00 -.576E+02   -.253E-01 -.158E-01 0.616E-02   0.159E-05 -.907E-06 0.100E-03
   0.217E+02 -.171E+02 -.244E+01   -.215E+02 0.175E+02 0.229E+01   -.290E+00 -.384E+00 0.102E+00   0.251E-05 0.186E-05 0.282E-04
   0.151E+00 0.421E-01 0.902E+02   -.106E+00 -.390E-01 -.902E+02   -.403E-01 -.441E-02 -.330E-02   -.106E-05 0.480E-06 0.649E-04
   0.246E+00 0.129E+00 0.228E+02   -.307E+00 -.290E-01 -.229E+02   0.685E-01 -.108E+00 0.147E+00   -.159E-05 -.198E-05 0.869E-04
   0.260E-01 0.158E-01 0.903E+02   0.343E-02 -.391E-01 -.902E+02   -.228E-01 0.412E-01 -.319E-01   -.425E-06 -.158E-05 0.641E-04
   -.146E+01 0.137E+00 0.230E+02   0.149E+01 -.175E+00 -.232E+02   -.481E-01 0.648E-01 0.194E+00   -.361E-05 -.229E-05 0.881E-04
   0.752E-01 -.665E-01 0.903E+02   -.466E-01 0.280E-01 -.903E+02   -.424E-01 0.429E-01 -.433E-01   0.139E-05 0.104E-05 0.649E-04
   -.264E+00 -.106E+01 0.249E+02   0.314E+00 0.106E+01 -.249E+02   -.563E-01 -.175E-02 0.482E-01   -.211E-05 0.103E-06 0.871E-04
   -.156E+00 -.233E-01 0.903E+02   0.940E-01 0.196E-01 -.903E+02   0.572E-01 0.248E-01 -.445E-01   0.116E-05 -.996E-06 0.645E-04
   0.316E+00 0.117E+01 0.247E+02   -.421E+00 -.119E+01 -.249E+02   0.961E-01 0.150E-01 0.237E+00   0.323E-05 0.121E-05 0.880E-04
   0.554E-01 -.772E-01 0.903E+02   -.505E-01 0.501E-01 -.902E+02   -.440E-02 0.326E-01 -.790E-01   -.396E-06 0.171E-06 0.630E-04
   0.244E+01 -.187E+00 0.252E+02   -.231E+01 0.739E-01 -.254E+02   -.153E+00 0.124E+00 0.204E+00   0.224E-05 -.143E-05 0.895E-04
   -.727E-01 -.264E-01 0.903E+02   0.589E-01 0.185E-01 -.903E+02   0.730E-02 -.510E-02 -.294E-01   0.525E-07 0.133E-05 0.630E-04
   -.879E-01 0.452E+00 0.233E+02   0.134E+00 -.466E+00 -.234E+02   -.526E-01 0.134E-02 0.117E+00   0.564E-06 0.345E-05 0.864E-04
   0.220E-01 0.299E-01 0.901E+02   -.712E-02 -.386E-02 -.901E+02   -.271E-01 -.771E-02 -.247E-01   -.115E-07 0.444E-06 0.638E-04
   -.603E+00 0.665E+00 0.245E+02   0.735E+00 -.722E+00 -.246E+02   -.136E+00 0.659E-01 0.806E-01   -.146E-05 0.143E-05 0.879E-04
   -.593E-01 0.100E+00 0.903E+02   0.477E-01 -.760E-01 -.903E+02   0.860E-02 -.198E-01 0.415E-01   0.806E-06 -.199E-05 0.647E-04
   -.938E+00 0.554E+00 0.279E+02   0.931E+00 -.463E+00 -.279E+02   0.109E-01 -.949E-01 -.776E-01   0.136E-05 -.274E-05 0.892E-04
   0.164E-01 -.131E+00 0.902E+02   -.274E-01 0.105E+00 -.902E+02   0.169E-01 0.251E-01 0.438E-02   -.150E-05 0.108E-05 0.635E-04
   0.407E+00 -.194E+01 0.237E+02   -.475E+00 0.198E+01 -.238E+02   0.627E-01 -.187E-01 0.113E+00   0.150E-05 0.197E-05 0.886E-04
   0.229E+02 0.412E+02 -.271E+03   -.317E+02 -.652E+02 0.244E+03   0.874E+01 0.240E+02 0.277E+02   -.245E-05 0.504E-05 -.823E-04
   0.291E+02 0.319E+02 -.427E+03   -.390E+02 -.547E+02 0.460E+03   0.987E+01 0.228E+02 -.337E+02   -.203E-05 -.436E-05 -.909E-04
   -.131E+02 0.122E+02 -.424E+03   -.434E+00 -.402E+02 0.452E+03   0.135E+02 0.280E+02 -.285E+02   0.418E-05 -.956E-05 -.106E-03
   0.470E+02 0.131E+02 -.308E+03   -.629E+02 -.427E+02 0.286E+03   0.159E+02 0.295E+02 0.227E+02   0.350E-05 -.147E-04 -.815E-04
   0.143E+02 -.143E+02 -.132E+03   -.174E+02 0.239E+01 0.108E+03   0.344E+01 0.120E+02 0.237E+02   0.201E-04 0.627E-05 -.423E-04
   -.176E+02 0.934E+02 -.288E+03   0.809E+00 -.124E+03 0.270E+03   0.167E+02 0.304E+02 0.181E+02   0.204E-05 0.127E-07 -.674E-04
   0.417E+02 -.360E+02 -.965E+02   -.471E+02 0.406E+02 0.100E+03   0.538E+01 -.459E+01 -.370E+01   -.198E-05 0.203E-05 -.134E-04
   -.561E+02 -.555E+01 -.965E+02   0.633E+02 0.581E+01 0.100E+03   -.719E+01 -.265E+00 -.361E+01   0.157E-05 0.685E-06 -.133E-04
   -.290E+02 -.612E+02 -.598E+02   0.328E+02 0.681E+02 0.595E+02   -.386E+01 -.698E+01 0.372E+00   0.162E-05 0.351E-05 -.144E-04
   0.206E+02 0.186E+02 0.328E+02   -.224E+02 -.203E+02 -.397E+02   0.183E+01 0.167E+01 0.687E+01   -.170E-05 -.121E-05 -.162E-04
   -.422E+02 -.782E+02 -.728E+02   0.459E+02 0.854E+02 0.736E+02   -.370E+01 -.716E+01 -.782E+00   0.120E-05 0.968E-06 -.151E-04
   0.153E+01 0.942E+01 0.342E+02   -.209E+01 -.105E+02 -.412E+02   0.569E+00 0.106E+01 0.700E+01   0.592E-06 -.583E-06 -.154E-04
   0.423E+02 -.713E+02 -.921E+02   -.458E+02 0.782E+02 0.946E+02   0.355E+01 -.697E+01 -.235E+01   -.125E-05 0.148E-05 -.115E-04
   -.560E+02 0.190E+01 -.961E+02   0.630E+02 -.266E+01 0.993E+02   -.701E+01 0.742E+00 -.319E+01   0.174E-05 -.616E-06 -.132E-04
   -.107E+02 -.375E+02 -.116E+03   0.120E+02 0.409E+02 0.123E+03   -.127E+01 -.341E+01 -.698E+01   0.130E-05 0.131E-05 -.106E-04
   0.328E+01 0.402E+01 -.179E+02   -.323E+01 -.412E+01 0.184E+02   -.265E-01 0.102E+00 -.436E+00   0.432E-06 -.923E-06 0.724E-05
   0.271E+02 -.373E+02 -.858E+02   -.314E+02 0.431E+02 0.886E+02   0.426E+01 -.572E+01 -.282E+01   -.210E-06 0.367E-06 -.125E-04
   -.824E+02 -.245E+01 -.837E+02   0.902E+02 0.332E+01 0.862E+02   -.776E+01 -.835E+00 -.251E+01   0.204E-05 -.203E-07 -.114E-04
 -----------------------------------------------------------------------------------------------
   -.519E+02 -.114E+03 -.166E+02   0.142E-13 -.235E-13 -.867E-12   0.519E+02 0.114E+03 0.165E+02   0.309E-04 -.102E-04 0.180E-02
 
 
 POSITION                                       TOTAL-FORCE (eV/Angst)
 -----------------------------------------------------------------------------------
      0.00000      0.00000      0.00000         0.012064     -0.012451      0.004118
      9.54120      0.01471      5.16430         0.017401      0.006776      0.010763
     -0.04517      0.11656     10.76800        -0.012376      0.023873     -0.015199
     -1.59263      2.75851      0.00000        -0.035439     -0.010302     -0.028163
     -1.60281      2.77976      5.14742        -0.001189      0.005495     -0.005283
      7.84230      2.82841     10.19515         0.008475     -0.013450      0.022373
     -3.18525      5.51702      0.00000         0.024718      0.027332     -0.027599
     -3.19424      5.54202      5.14965         0.001793      0.013264      0.002168
      6.30683      5.61078     10.28221        -0.094615     -0.043816      0.073244
      3.18525      0.00000      0.00000        -0.015527     -0.008045     -0.015849
      3.18240      0.01440      5.13312        -0.017024     -0.006481      0.002808
      3.10694      0.10594     10.10066        -0.039591     -0.025426      0.000670
      1.59263      2.75851      0.00000         0.002693     -0.009254     -0.017036
      1.57580      2.75764      5.12642         0.004866     -0.014241     -0.014912
      1.46284      2.76609     10.19192         0.027244      0.011045      0.007427
     -0.00000      5.51702      0.00000        -0.022337     -0.006224     -0.014561
     -0.02004      5.54645      5.15200        -0.011879      0.013776      0.003912
     -0.18022      5.64326     10.77189        -0.025315     -0.023767     -0.012679
      6.37050      0.00000      0.00000         0.004014      0.050190     -0.013723
      6.35806      0.00360      5.15178        -0.006973     -0.004648     -0.003709
      6.34073      0.11015     10.25781         0.005453     -0.001079      0.016322
      4.77788      2.75851      0.00000         0.035045     -0.041387     -0.018396
      4.76435      2.78276      5.17266        -0.002487      0.008018     -0.006393
      4.70628      2.76263     10.86674        -0.004908     -0.070641     -0.006191
      3.18525      5.51702      0.00000        -0.008093      0.015949     -0.046618
      3.19742      5.54061      5.14125        -0.000479     -0.003690     -0.020882
      3.03447      5.64133     10.32187        -0.034560      0.029852     -0.053704
      0.00000      1.83901      2.60418         0.004516     -0.001430      0.027800
     -0.04965      1.85033      7.71766         0.007581     -0.007975      0.005575
     -1.59263      4.59751      2.60418         0.006690      0.017857      0.033292
     -1.58029      4.65139      7.73915        -0.012210      0.026356      0.031502
     -3.18525      7.35602      2.60418        -0.013671      0.004286     -0.014693
     -3.23323      7.39819      7.69272        -0.006790     -0.009268      0.041153
      3.18525      1.83901      2.60418        -0.004964      0.021027      0.040115
      3.17204      1.93433      7.71088        -0.008611     -0.007890      0.003986
      1.59263      4.59751      2.60418         0.000588      0.005306      0.018032
      1.59430      4.63222      7.62259        -0.022501      0.010869     -0.000657
      0.00000      7.35602      2.60418        -0.006435     -0.013158      0.027746
     -0.00232      7.34412      7.74860        -0.006514     -0.013017      0.007221
      6.37050      1.83901      2.60418        -0.012065      0.018254      0.006138
      6.31901      1.87244      7.69323        -0.003634      0.009269      0.010892
      4.77788      4.59751      2.60418        -0.002947      0.004386      0.075501
      4.76102      4.61531      7.75136         0.004330     -0.004505     -0.047339
      3.18525      7.35602      2.60418         0.005943     -0.000795      0.036685
      3.19469      7.37538      7.79118        -0.004858      0.023375     -0.010716
     -4.77512      8.27247     12.93217        -0.007847     -0.009355      0.009236
     -1.82616      7.97502     13.47005        -0.013544     -0.009869      0.037482
      7.34013      1.84305     13.56830        -0.032419      0.006729      0.034725
      4.52449      2.24570     13.05836         0.036193     -0.009303      0.001195
      4.40783      4.71939     11.50505         0.315317      0.103220     -0.311578
     -0.03147      5.85617     12.91043        -0.025504     -0.010610      0.015174
      8.91412      0.57663     13.40432        -0.009270     -0.007372     -0.000935
      0.87442      0.05082     13.38845         0.002322     -0.000913     -0.011304
      3.42691      0.56249     13.40305        -0.001366     -0.014854     -0.005647
     -2.06171      7.77223     12.51931        -0.022226     -0.012568     -0.013834
      7.78772      2.71324     13.64409        -0.020569      0.010839     -0.011589
      7.27150      1.71807     12.57080         0.005283     -0.001236     -0.032283
      4.12169      3.08705     13.35739        -0.003282     -0.033571      0.148525
      5.42318      2.17992     13.48021         0.048444     -0.018830     -0.029309
      4.56359      5.13502     12.37933         0.000271     -0.017413      0.027757
      1.47317      4.60104     10.86068         0.023345      0.000156      0.052734
     -0.56218      6.61296     13.28226        -0.030217     -0.005631     -0.004950
      0.88894      5.97698     13.21849        -0.000355      0.036966     -0.020538
 -----------------------------------------------------------------------------------
    total drift:                               -0.004970      0.007160     -0.017690


--------------------------------------------------------------------------------------------------------



  FREE ENERGIE OF THE ION-ELECTRON SYSTEM (eV)
  ---------------------------------------------------
  free  energy   TOTEN  =       -69.23255692 eV

  energy  without entropy=      -69.23255692  energy(sigma->0) =      -69.23255692
 


--------------------------------------------------------------------------------------------------------


    POTLOK:  cpu time    5.1189: real time    5.1224


--------------------------------------------------------------------------------------------------------


 stress matrix after NEB project (eV)
     -9.04234      0.22570      0.59667
      0.22570     -7.55647     -0.80679
      0.59667     -0.80679     -0.31625
  FORCES: max atom, RMS     0.455149    0.068324
  FORCE total and by dimension    0.542308    0.315317
  Stress total and by dimension   11.877702    9.042336
     LOOP+:  cpu time  283.9686: real time  286.2642
 vacuum level on the upper side and lower side of the slab         2.116         3.284
    4ORBIT:  cpu time    0.0000: real time    0.0000
 BZINTS: Fermi energy: -0.515473;138.000000 electrons
         Band energy:-871.448248;  BLOECHL correction: -0.090845

 total amount of memory used by VASP MPI-rank0    62198. kBytes
=======================================================================

   base      :      30000. kBytes
   nonlr-proj:       6295. kBytes
   fftplans  :       6459. kBytes
   grid      :      11407. kBytes
   one-center:         24. kBytes
   wavefun   :       8013. kBytes
 
  
  
 General timing and accounting informations for this job:
 ========================================================
  
                  Total CPU time used (sec):      329.273
                            User time (sec):      320.370
                          System time (sec):        8.903
                         Elapsed time (sec):      340.670
  
                   Maximum memory used (kb):      267316.
                   Average memory used (kb):           0.
  
                          Minor page faults:       254704
                          Major page faults:            0
                 Voluntary context switches:        80856
