 running on   72 total cores
 distrk:  each k-point on   72 cores,    1 groups
 distr:  one band on   24 cores,    3 groups
 using from now: INCAR     
 vasp.5.4.4.18Apr17-6-g9f103f2a35 (build Jun 08 2018 12:06:12) complex          
  
 POSCAR found type information on POSCAR  Mg O  H 
 POSCAR found :  3 types and      63 ions
 scaLAPACK will be used

 ----------------------------------------------------------------------------- 
|                                                                             |
|           W    W    AA    RRRRR   N    N  II  N    N   GGGG   !!!           |
|           W    W   A  A   R    R  NN   N  II  NN   N  G    G  !!!           |
|           W    W  A    A  R    R  N N  N  II  N N  N  G       !!!           |
|           W WW W  AAAAAA  RRRRR   N  N N  II  N  N N  G  GGG   !            |
|           WW  WW  A    A  R   R   N   NN  II  N   NN  G    G                |
|           W    W  A    A  R    R  N    N  II  N    N   GGGG   !!!           |
|                                                                             |
|      For optimal performance we recommend to set                            |
|        NCORE= 4 - approx SQRT( number of cores)                             |
|      NCORE specifies how many cores store one orbital (NPAR=cpu/NCORE).     |
|      This setting can  greatly improve the performance of VASP for DFT.     |
|      The default,   NCORE=1            might be grossly inefficient         |
|      on modern multi-core architectures or massively parallel machines.     |
|      Do your own testing !!!!                                               |
|      Unfortunately you need to use the default for GW and RPA calculations. |
|      (for HF NCORE is supported but not extensively tested yet)             |
|                                                                             |
 ----------------------------------------------------------------------------- 


 ----------------------------------------------------------------------------- 
|                                                                             |
|  ADVICE TO THIS USER RUNNING 'VASP/VAMP'   (HEAR YOUR MASTER'S VOICE ...):  |
|                                                                             |
|      You have switched on vdW-DFT.                                          |
|      This routine was written and supplied by Jiri Klimes.                  |
|      We recommed that you carefully read and cite the following             |
|      publication                                                            |
|      J. Klimes, D.R. Bowler, A. Michelides                                  |
|        J. Phys.: Cond Matt. 22 022201 (2010)                                |
|      J. Klimes, D.R. Bowler, A. Michelides                                  |
|        Phys. Rev. B. 83, 195131 (2011)                                      |
|      and references therein.                                                |
|                                                                             |
 ----------------------------------------------------------------------------- 


 ----------------------------------------------------------------------------- 
|                                                                             |
|  ADVICE TO THIS USER RUNNING 'VASP/VAMP'   (HEAR YOUR MASTER'S VOICE ...):  |
|                                                                             |
|      You enforced a specific xc-type in the INCAR file,                     |
|      a different type was found on the POTCAR file                          |
|          I HOPE YOU KNOW, WHAT YOU ARE  DOING                               |
|                                                                             |
 ----------------------------------------------------------------------------- 

 LDA part: xc-table for Pade appr. of Perdew
 POSCAR found type information on POSCAR  Mg O  H 
 POSCAR found :  3 types and      63 ions
 POSCAR, INCAR and KPOINTS ok, starting setup
 FFT: planning ...
 WAVECAR not read
 augmentation electrons   138.061219617324     
 soft         electrons  0.000000000000000E+000
 augmentation electrons   138.061219617324     
 soft         electrons  0.000000000000000E+000
 augmentation electrons   138.061219617324     
 soft         electrons  0.000000000000000E+000
 augmentation electrons   138.061219617324     
 soft         electrons  0.000000000000000E+000
 augmentation electrons   138.061219617324     
 soft         electrons  0.000000000000000E+000
 augmentation electrons   138.061219617324     
 augmentation electrons   138.061219617324     
 soft         electrons  0.000000000000000E+000
 augmentation electrons   138.061219617324     
 soft         electrons  0.000000000000000E+000
 augmentation electrons   138.061219617324     
 soft         electrons  0.000000000000000E+000
 augmentation electrons   138.061219617324     
 soft         electrons  0.000000000000000E+000
 augmentation electrons   138.061219617324     
 soft         electrons  0.000000000000000E+000
 augmentation electrons   138.061219617324     
 soft         electrons  0.000000000000000E+000
 augmentation electrons   138.061219617324     
 soft         electrons  0.000000000000000E+000
 augmentation electrons   138.061219617324     
 soft         electrons  0.000000000000000E+000
 augmentation electrons   138.061219617324     
 soft         electrons  0.000000000000000E+000
 augmentation electrons   138.061219617324     
 soft         electrons  0.000000000000000E+000
 augmentation electrons   138.061219617324     
 soft         electrons  0.000000000000000E+000
 augmentation electrons   138.061219617324     
 soft         electrons  0.000000000000000E+000
 augmentation electrons   138.061219617324     
 soft         electrons  0.000000000000000E+000
 augmentation electrons   138.061219617324     
 soft         electrons  0.000000000000000E+000
 augmentation electrons   138.061219617324     
 soft         electrons  0.000000000000000E+000
 augmentation electrons   138.061219617324     
 soft         electrons  0.000000000000000E+000
 augmentation electrons   138.061219617324     
 soft         electrons  0.000000000000000E+000
 augmentation electrons   138.061219617324     
 soft         electrons  0.000000000000000E+000
 augmentation electrons   138.061219617324     
 soft         electrons  0.000000000000000E+000
 augmentation electrons   138.061219617324     
 soft         electrons  0.000000000000000E+000
 augmentation electrons   138.061219617324     
 soft         electrons  0.000000000000000E+000
 augmentation electrons   138.061219617324     
 soft         electrons  0.000000000000000E+000
 augmentation electrons   138.061219617324     
 soft         electrons  0.000000000000000E+000
 augmentation electrons   138.061219617324     
 soft         electrons  0.000000000000000E+000
 augmentation electrons   138.061219617324     
 soft         electrons  0.000000000000000E+000
 augmentation electrons   138.061219617324     
 soft         electrons  0.000000000000000E+000
 augmentation electrons   138.061219617324     
 soft         electrons  0.000000000000000E+000
 augmentation electrons   138.061219617324     
 soft         electrons  0.000000000000000E+000
 augmentation electrons   138.061219617324     
 soft         electrons  0.000000000000000E+000
 augmentation electrons   138.061219617324     
 soft         electrons  0.000000000000000E+000
 augmentation electrons   138.061219617324     
 soft         electrons  0.000000000000000E+000
 augmentation electrons   138.061219617324     
 soft         electrons  0.000000000000000E+000
 augmentation electrons   138.061219617324     
 soft         electrons  0.000000000000000E+000
 augmentation electrons   138.061219617324     
 soft         electrons  0.000000000000000E+000
 augmentation electrons   138.061219617324     
 soft         electrons  0.000000000000000E+000
 augmentation electrons   138.061219617324     
 soft         electrons  0.000000000000000E+000
 augmentation electrons   138.061219617324     
 soft         electrons  0.000000000000000E+000
 augmentation electrons   138.061219617324     
 soft         electrons  0.000000000000000E+000
 augmentation electrons   138.061219617324     
 soft         electrons  0.000000000000000E+000
 augmentation electrons   138.061219617324     
 soft         electrons  0.000000000000000E+000
 augmentation electrons   138.061219617324     
 soft         electrons  0.000000000000000E+000
 augmentation electrons   138.061219617324     
 soft         electrons  0.000000000000000E+000
 augmentation electrons   138.061219617324     
 soft         electrons  0.000000000000000E+000
 augmentation electrons   138.061219617324     
 soft         electrons  0.000000000000000E+000
 soft         electrons  0.000000000000000E+000
 augmentation electrons   138.061219617324     
 soft         electrons  0.000000000000000E+000
 augmentation electrons   138.061219617324     
 soft         electrons  0.000000000000000E+000
 total        electrons   138.061219617324     
 augmentation electrons   138.061219617324     
 soft         electrons  0.000000000000000E+000
 augmentation electrons   138.061219617324     
 soft         electrons  0.000000000000000E+000
 total        electrons   138.061219617324     
 augmentation electrons   138.061219617324     
 soft         electrons  0.000000000000000E+000
 augmentation electrons   138.061219617324     
 soft         electrons  0.000000000000000E+000
 total        electrons   138.061219617324     
 augmentation electrons   138.061219617324     
 soft         electrons  0.000000000000000E+000
 augmentation electrons   138.061219617324     
 soft         electrons  0.000000000000000E+000
 total        electrons   138.061219617324     
 augmentation electrons   138.061219617324     
 soft         electrons  0.000000000000000E+000
 augmentation electrons   138.061219617324     
 soft         electrons  0.000000000000000E+000
 total        electrons   138.061219617324     
 augmentation electrons   138.061219617324     
 soft         electrons  0.000000000000000E+000
 augmentation electrons   138.061219617324     
 soft         electrons  0.000000000000000E+000
 total        electrons   138.061219617324     
 augmentation electrons   138.061219617324     
 soft         electrons  0.000000000000000E+000
 augmentation electrons   138.061219617324     
 soft         electrons  0.000000000000000E+000
 total        electrons   138.061219617324     
 augmentation electrons   138.061219617324     
 soft         electrons  0.000000000000000E+000
 augmentation electrons   138.061219617324     
 soft         electrons  0.000000000000000E+000
 total        electrons   138.061219617324     
 augmentation electrons   138.061219617324     
 soft         electrons  0.000000000000000E+000
 augmentation electrons   138.061219617324     
 soft         electrons  0.000000000000000E+000
 total        electrons   138.061219617324     
 augmentation electrons   138.061219617324     
 soft         electrons  0.000000000000000E+000
 augmentation electrons   138.061219617324     
 total        electrons   138.061219617324     
 augmentation electrons   138.061219617324     
 soft         electrons  0.000000000000000E+000
 soft         electrons  0.000000000000000E+000
 total        electrons   138.061219617324     
 augmentation electrons   138.061219617324     
 total        electrons   138.061219617324     
 total        electrons   138.061219617324     
 soft         electrons  0.000000000000000E+000
 total        electrons   138.061219617324     
 total        electrons   138.061219617324     
 total        electrons   138.061219617324     
 total        electrons   138.061219617324     
 total        electrons   138.061219617324     
 total        electrons   138.061219617324     
 total        electrons   138.061219617324     
 total        electrons   138.061219617324     
 total        electrons   138.061219617324     
 total        electrons   138.061219617324     
 total        electrons   138.061219617324     
 total        electrons   138.061219617324     
 total        electrons   138.061219617324     
 total        electrons   138.061219617324     
 total        electrons   138.061219617324     
 total        electrons   138.061219617324     
 total        electrons   138.061219617324     
 total        electrons   138.061219617324     
 total        electrons   138.061219617324     
 total        electrons   138.061219617324     
 total        electrons   138.061219617324     
 total        electrons   138.061219617324     
 total        electrons   138.061219617324     
 total        electrons   138.061219617324     
 total        electrons   138.061219617324     
 total        electrons   138.061219617324     
 total        electrons   138.061219617324     
 total        electrons   138.061219617324     
 total        electrons   138.061219617324     
 total        electrons   138.061219617324     
 total        electrons   138.061219617324     
 total        electrons   138.061219617324     
 total        electrons   138.061219617324     
 total        electrons   138.061219617324     
 total        electrons   138.061219617324     
 total        electrons   138.061219617324     
 total        electrons   138.061219617324     
 total        electrons   138.061219617324     
 total        electrons   138.061219617324     
 total        electrons   138.061219617324     
 total        electrons   138.061219617324     
 total        electrons   138.061219617324     
 total        electrons   138.061219617324     
 total        electrons   138.061219617324     
 total        electrons   138.061219617324     
 total        electrons   138.061219617324     
 total        electrons   138.061219617324     
 total        electrons   138.061219617324     
 total        electrons   138.061219617324     
 total        electrons   138.061219617324     
 total        electrons   138.061219617324     
 total        electrons   138.061219617324     
 total        electrons   138.061219617324     
 total        electrons   138.061219617324     
 total        electrons   138.061219617324     
 total        electrons   138.061219617324     
 total        electrons   138.061219617324     
 total        electrons   138.061219617324     
 total        electrons   138.061219617324     
 augmentation electrons   480.770729953908     
 soft         electrons  0.000000000000000E+000
 augmentation electrons   480.770729953908     
 soft         electrons  0.000000000000000E+000
 augmentation electrons   480.770729953908     
 soft         electrons  0.000000000000000E+000
 augmentation electrons   480.770729953908     
 soft         electrons  0.000000000000000E+000
 augmentation electrons   480.770729953908     
 soft         electrons  0.000000000000000E+000
 augmentation electrons   480.770729953908     
 augmentation electrons   480.770729953908     
 soft         electrons  0.000000000000000E+000
 augmentation electrons   480.770729953908     
 soft         electrons  0.000000000000000E+000
 augmentation electrons   480.770729953908     
 soft         electrons  0.000000000000000E+000
 augmentation electrons   480.770729953908     
 soft         electrons  0.000000000000000E+000
 augmentation electrons   480.770729953908     
 soft         electrons  0.000000000000000E+000
 augmentation electrons   480.770729953908     
 soft         electrons  0.000000000000000E+000
 augmentation electrons   480.770729953908     
 augmentation electrons   480.770729953908     
 soft         electrons  0.000000000000000E+000
 augmentation electrons   480.770729953908     
 soft         electrons  0.000000000000000E+000
 augmentation electrons   480.770729953908     
 soft         electrons  0.000000000000000E+000
 augmentation electrons   480.770729953908     
 soft         electrons  0.000000000000000E+000
 augmentation electrons   480.770729953908     
 soft         electrons  0.000000000000000E+000
 augmentation electrons   480.770729953908     
 soft         electrons  0.000000000000000E+000
 augmentation electrons   480.770729953908     
 augmentation electrons   480.770729953908     
 soft         electrons  0.000000000000000E+000
 augmentation electrons   480.770729953908     
 soft         electrons  0.000000000000000E+000
 augmentation electrons   480.770729953908     
 soft         electrons  0.000000000000000E+000
 augmentation electrons   480.770729953908     
 soft         electrons  0.000000000000000E+000
 augmentation electrons   480.770729953908     
 soft         electrons  0.000000000000000E+000
 augmentation electrons   480.770729953908     
 soft         electrons  0.000000000000000E+000
 augmentation electrons   480.770729953908     
 soft         electrons  0.000000000000000E+000
 augmentation electrons   480.770729953908     
 soft         electrons  0.000000000000000E+000
 augmentation electrons   480.770729953908     
 soft         electrons  0.000000000000000E+000
 augmentation electrons   480.770729953908     
 soft         electrons  0.000000000000000E+000
 augmentation electrons   480.770729953908     
 soft         electrons  0.000000000000000E+000
 augmentation electrons   480.770729953908     
 soft         electrons  0.000000000000000E+000
 augmentation electrons   480.770729953908     
 soft         electrons  0.000000000000000E+000
 augmentation electrons   480.770729953908     
 soft         electrons  0.000000000000000E+000
 augmentation electrons   480.770729953908     
 soft         electrons  0.000000000000000E+000
 augmentation electrons   480.770729953908     
 soft         electrons  0.000000000000000E+000
 augmentation electrons   480.770729953908     
 soft         electrons  0.000000000000000E+000
 augmentation electrons   480.770729953908     
 soft         electrons  0.000000000000000E+000
 augmentation electrons   480.770729953908     
 soft         electrons  0.000000000000000E+000
 augmentation electrons   480.770729953908     
 soft         electrons  0.000000000000000E+000
 augmentation electrons   480.770729953908     
 soft         electrons  0.000000000000000E+000
 augmentation electrons   480.770729953908     
 soft         electrons  0.000000000000000E+000
 augmentation electrons   480.770729953908     
 soft         electrons  0.000000000000000E+000
 augmentation electrons   480.770729953908     
 soft         electrons  0.000000000000000E+000
 augmentation electrons   480.770729953908     
 soft         electrons  0.000000000000000E+000
 augmentation electrons   480.770729953908     
 soft         electrons  0.000000000000000E+000
 augmentation electrons   480.770729953908     
 soft         electrons  0.000000000000000E+000
 augmentation electrons   480.770729953908     
 soft         electrons  0.000000000000000E+000
 augmentation electrons   480.770729953908     
 soft         electrons  0.000000000000000E+000
 augmentation electrons   480.770729953908     
 soft         electrons  0.000000000000000E+000
 soft         electrons  0.000000000000000E+000
 augmentation electrons   480.770729953908     
 soft         electrons  0.000000000000000E+000
 augmentation electrons   480.770729953908     
 soft         electrons  0.000000000000000E+000
 total        electrons   480.770729953908     
 augmentation electrons   480.770729953908     
 soft         electrons  0.000000000000000E+000
 augmentation electrons   480.770729953908     
 soft         electrons  0.000000000000000E+000
 total        electrons   480.770729953908     
 augmentation electrons   480.770729953908     
 soft         electrons  0.000000000000000E+000
 augmentation electrons   480.770729953908     
 soft         electrons  0.000000000000000E+000
 total        electrons   480.770729953908     
 augmentation electrons   480.770729953908     
 soft         electrons  0.000000000000000E+000
 augmentation electrons   480.770729953908     
 soft         electrons  0.000000000000000E+000
 total        electrons   480.770729953908     
 augmentation electrons   480.770729953908     
 soft         electrons  0.000000000000000E+000
 augmentation electrons   480.770729953908     
 soft         electrons  0.000000000000000E+000
 total        electrons   480.770729953908     
 augmentation electrons   480.770729953908     
 soft         electrons  0.000000000000000E+000
 augmentation electrons   480.770729953908     
 soft         electrons  0.000000000000000E+000
 total        electrons   480.770729953908     
 augmentation electrons   480.770729953908     
 soft         electrons  0.000000000000000E+000
 augmentation electrons   480.770729953908     
 soft         electrons  0.000000000000000E+000
 total        electrons   480.770729953908     
 augmentation electrons   480.770729953908     
 soft         electrons  0.000000000000000E+000
 augmentation electrons   480.770729953908     
 soft         electrons  0.000000000000000E+000
 total        electrons   480.770729953908     
 augmentation electrons   480.770729953908     
 soft         electrons  0.000000000000000E+000
 augmentation electrons   480.770729953908     
 soft         electrons  0.000000000000000E+000
 total        electrons   480.770729953908     
 augmentation electrons   480.770729953908     
 soft         electrons  0.000000000000000E+000
 augmentation electrons   480.770729953908     
 soft         electrons  0.000000000000000E+000
 total        electrons   480.770729953908     
 augmentation electrons   480.770729953908     
 soft         electrons  0.000000000000000E+000
 soft         electrons  0.000000000000000E+000
 total        electrons   480.770729953908     
 augmentation electrons   480.770729953908     
 soft         electrons  0.000000000000000E+000
 total        electrons   480.770729953908     
 total        electrons   480.770729953908     
 soft         electrons  0.000000000000000E+000
 total        electrons   480.770729953908     
 total        electrons   480.770729953908     
 total        electrons   480.770729953908     
 total        electrons   480.770729953908     
 total        electrons   480.770729953908     
 total        electrons   480.770729953908     
 total        electrons   480.770729953908     
 total        electrons   480.770729953908     
 total        electrons   480.770729953908     
 total        electrons   480.770729953908     
 total        electrons   480.770729953908     
 total        electrons   480.770729953908     
 total        electrons   480.770729953908     
 total        electrons   480.770729953908     
 total        electrons   480.770729953908     
 total        electrons   480.770729953908     
 total        electrons   480.770729953908     
 total        electrons   480.770729953908     
 total        electrons   480.770729953908     
 total        electrons   480.770729953908     
 total        electrons   480.770729953908     
 total        electrons   480.770729953908     
 total        electrons   480.770729953908     
 total        electrons   480.770729953908     
 total        electrons   480.770729953908     
 total        electrons   480.770729953908     
 total        electrons   480.770729953908     
 total        electrons   480.770729953908     
 total        electrons   480.770729953908     
 total        electrons   480.770729953908     
 total        electrons   480.770729953908     
 total        electrons   480.770729953908     
 total        electrons   480.770729953908     
 total        electrons   480.770729953908     
 total        electrons   480.770729953908     
 total        electrons   480.770729953908     
 total        electrons   480.770729953908     
 total        electrons   480.770729953908     
 total        electrons   480.770729953908     
 total        electrons   480.770729953908     
 total        electrons   480.770729953908     
 total        electrons   480.770729953908     
 total        electrons   480.770729953908     
 total        electrons   480.770729953908     
 total        electrons   480.770729953908     
 total        electrons   480.770729953908     
 total        electrons   480.770729953908     
 total        electrons   480.770729953908     
 total        electrons   480.770729953908     
 total        electrons   480.770729953908     
 total        electrons   480.770729953908     
 total        electrons   480.770729953908     
 total        electrons   480.770729953908     
 total        electrons   480.770729953908     
 total        electrons   480.770729953908     
 total        electrons   480.770729953908     
 total        electrons   480.770729953908     
 total        electrons   480.770729953908     
 total        electrons   480.770729953908     
 entering main loop
       N       E                     dE             d eps       ncg     rms          rms(c)
Total vdW correction in eV:     53.6854832
RMM:   1     0.124671222701E+04    0.12467E+04   -0.27943E+04   510   0.785E+02
RMM:   2     0.546843037785E+03   -0.69987E+03   -0.75951E+03   510   0.166E+02
RMM:   3     0.310365572438E+03   -0.23648E+03   -0.30239E+03   510   0.838E+01
RMM:   4     0.135713583179E+03   -0.17465E+03   -0.15004E+03   510   0.801E+01
RMM:   5     0.181522588976E+02   -0.11756E+03   -0.93937E+02   510   0.647E+01
RMM:   6    -0.450832672734E+02   -0.63236E+02   -0.48050E+02   510   0.461E+01
RMM:   7    -0.715595852368E+02   -0.26476E+02   -0.19670E+02   510   0.268E+01
RMM:   8    -0.785017596649E+02   -0.69422E+01   -0.57031E+01   510   0.138E+01
RMM:   9    -0.806265764529E+02   -0.21248E+01   -0.20253E+01  1466   0.751E+00
RMM:  10    -0.809101829279E+02   -0.28361E+00   -0.29887E+00  1749   0.277E+00
RMM:  11    -0.809103401158E+02   -0.15719E-03   -0.16062E-01  1702   0.679E-01
RMM:  12    -0.809129255468E+02   -0.25854E-02   -0.32289E-02  1793   0.280E-01    0.201E+01
Total vdW correction in eV:     53.7379677
RMM:  13    -0.702773224396E+02    0.10636E+02   -0.60961E+01  1430   0.140E+01    0.781E+00
Total vdW correction in eV:     53.6904953
RMM:  14    -0.790498949824E+02   -0.87726E+01   -0.46319E+00  1664   0.314E+00    0.738E+00
Total vdW correction in eV:     53.6763061
RMM:  15    -0.700604794316E+02    0.89894E+01   -0.16151E+00  1414   0.114E+00    0.509E+00
Total vdW correction in eV:     53.6095083
RMM:  16    -0.694154825198E+02    0.64500E+00   -0.10873E+00  1450   0.208E+00    0.201E+00
Total vdW correction in eV:     53.6029212
RMM:  17    -0.692632944675E+02    0.15219E+00   -0.29355E-01  1359   0.104E+00    0.746E-01
Total vdW correction in eV:     53.6080014
RMM:  18    -0.692429969942E+02    0.20297E-01   -0.65453E-02  1621   0.485E-01    0.387E-01
Total vdW correction in eV:     53.6147688
RMM:  19    -0.692327257304E+02    0.10271E-01   -0.42233E-02  1393   0.385E-01    0.258E-01
Total vdW correction in eV:     53.6181660
RMM:  20    -0.692422683748E+02   -0.95426E-02   -0.14061E-02  1546   0.222E-01    0.836E-02
Total vdW correction in eV:     53.6243024
RMM:  21    -0.692419130407E+02    0.35533E-03   -0.13523E-03  1508   0.684E-02    0.490E-02
Total vdW correction in eV:     53.6325710
RMM:  22    -0.692371789814E+02    0.47341E-02   -0.12775E-03  1367   0.602E-02    0.487E-02
Total vdW correction in eV:     53.6373629
RMM:  23    -0.692329416737E+02    0.42373E-02   -0.46346E-04  1342   0.398E-02    0.177E-02
Total vdW correction in eV:     53.6428465
RMM:  24    -0.692320144917E+02    0.92718E-03   -0.21034E-04  1171   0.284E-02    0.174E-02
Total vdW correction in eV:     53.6452025
RMM:  25    -0.692326311606E+02   -0.61667E-03   -0.14133E-04  1118   0.256E-02    0.117E-02
Total vdW correction in eV:     53.6465206
RMM:  26    -0.692326194467E+02    0.11714E-04   -0.11554E-04   991   0.178E-02    0.676E-03
Total vdW correction in eV:     53.6470374
RMM:  27    -0.692324282212E+02    0.19123E-03   -0.17461E-04  1032   0.176E-02    0.319E-03
Total vdW correction in eV:     53.6472570
RMM:  28    -0.692324149763E+02    0.13245E-04   -0.91947E-05   896   0.107E-02    0.113E-03
Total vdW correction in eV:     53.6472424
RMM:  29    -0.692324456667E+02   -0.30690E-04   -0.60783E-05   874   0.855E-03    0.126E-03
Total vdW correction in eV:     53.6471823
RMM:  30    -0.692324636095E+02   -0.17943E-04   -0.42781E-05   899   0.998E-03    0.890E-04
Total vdW correction in eV:     53.6471510
RMM:  31    -0.692324455312E+02    0.18078E-04   -0.44040E-05   823   0.943E-03    0.457E-04
Total vdW correction in eV:     53.6471208
RMM:  32    -0.692324911818E+02   -0.45651E-04   -0.56667E-06   830   0.502E-03    0.724E-04
Total vdW correction in eV:     53.6471052
RMM:  33    -0.692325133241E+02   -0.22142E-04   -0.64023E-06   789   0.496E-03    0.665E-04
Total vdW correction in eV:     53.6470760
RMM:  34    -0.698072202089E+02   -0.57471E+00   -0.17531E-05  1045   0.645E-03    0.795E-01
Total vdW correction in eV:     53.6470524
RMM:  35    -0.692322014931E+02    0.57502E+00   -0.25033E-03   791   0.261E-02    0.252E-03
Total vdW correction in eV:     53.6470766
RMM:  36    -0.692323843415E+02   -0.18285E-03   -0.18552E-05   844   0.114E-02    0.557E-04
Total vdW correction in eV:     53.6470724
RMM:  37    -0.692324738723E+02   -0.89531E-04   -0.14902E-05   911   0.878E-03    0.341E-04
Total vdW correction in eV:     53.6470735
RMM:  38    -0.692325124324E+02   -0.38560E-04   -0.14774E-05   903   0.668E-03    0.204E-04
Total vdW correction in eV:     53.6470707
RMM:  39    -0.692325398520E+02   -0.27420E-04   -0.24511E-05   962   0.639E-03    0.675E-05
Total vdW correction in eV:     53.6470689
RMM:  40    -0.692325530655E+02   -0.13213E-04   -0.24371E-05   929   0.661E-03    0.783E-05
Total vdW correction in eV:     53.6470684
RMM:  41    -0.692325569216E+02   -0.38561E-05   -0.57356E-06   835   0.420E-03
Total vdW correction in eV:     53.6470710
Total vdW correction in eV:     53.6470696
   1 F= -.69232557E+02 E0= -.69232557E+02  d E =0.000000E+00
 augmentation electrons   4.45355302633598     
 soft         electrons   133.584550272904     
 augmentation electrons   4.45355302633598     
 soft         electrons   133.584550272904     
 augmentation electrons   4.45355302633598     
 soft         electrons   133.584550272904     
 augmentation electrons   4.45355302633598     
 soft         electrons   133.584550272904     
 augmentation electrons   4.45355302633598     
 soft         electrons   133.584550272904     
 augmentation electrons   4.45355302633598     
 augmentation electrons   4.45355302633598     
 soft         electrons   133.584550272904     
 augmentation electrons   4.45355302633598     
 soft         electrons   133.584550272904     
 augmentation electrons   4.45355302633598     
 soft         electrons   133.584550272904     
 augmentation electrons   4.45355302633598     
 soft         electrons   133.584550272904     
 augmentation electrons   4.45355302633598     
 soft         electrons   133.584550272904     
 augmentation electrons   4.45355302633598     
 soft         electrons   133.584550272904     
 augmentation electrons   4.45355302633598     
 soft         electrons   133.584550272904     
 augmentation electrons   4.45355302633598     
 soft         electrons   133.584550272904     
 augmentation electrons   4.45355302633598     
 soft         electrons   133.584550272904     
 augmentation electrons   4.45355302633598     
 soft         electrons   133.584550272904     
 augmentation electrons   4.45355302633598     
 soft         electrons   133.584550272904     
 augmentation electrons   4.45355302633598     
 soft         electrons   133.584550272904     
 augmentation electrons   4.45355302633598     
 soft         electrons   133.584550272904     
 augmentation electrons   4.45355302633598     
 soft         electrons   133.584550272904     
 augmentation electrons   4.45355302633598     
 soft         electrons   133.584550272904     
 augmentation electrons   4.45355302633598     
 augmentation electrons   4.45355302633598     
 soft         electrons   133.584550272904     
 augmentation electrons   4.45355302633598     
 soft         electrons   133.584550272904     
 augmentation electrons   4.45355302633598     
 soft         electrons   133.584550272904     
 augmentation electrons   4.45355302633598     
 soft         electrons   133.584550272904     
 augmentation electrons   4.45355302633598     
 soft         electrons   133.584550272904     
 augmentation electrons   4.45355302633598     
 soft         electrons   133.584550272904     
 augmentation electrons   4.45355302633598     
 soft         electrons   133.584550272904     
 augmentation electrons   4.45355302633598     
 soft         electrons   133.584550272904     
 augmentation electrons   4.45355302633598     
 soft         electrons   133.584550272904     
 augmentation electrons   4.45355302633598     
 soft         electrons   133.584550272904     
 augmentation electrons   4.45355302633598     
 soft         electrons   133.584550272904     
 augmentation electrons   4.45355302633598     
 soft         electrons   133.584550272904     
 augmentation electrons   4.45355302633598     
 soft         electrons   133.584550272904     
 augmentation electrons   4.45355302633598     
 soft         electrons   133.584550272904     
 augmentation electrons   4.45355302633598     
 soft         electrons   133.584550272904     
 augmentation electrons   4.45355302633598     
 augmentation electrons   4.45355302633598     
 soft         electrons   133.584550272904     
 augmentation electrons   4.45355302633598     
 soft         electrons   133.584550272904     
 augmentation electrons   4.45355302633598     
 soft         electrons   133.584550272904     
 augmentation electrons   4.45355302633598     
 soft         electrons   133.584550272904     
 augmentation electrons   4.45355302633598     
 soft         electrons   133.584550272904     
 augmentation electrons   4.45355302633598     
 soft         electrons   133.584550272904     
 augmentation electrons   4.45355302633598     
 soft         electrons   133.584550272904     
 augmentation electrons   4.45355302633598     
 soft         electrons   133.584550272904     
 augmentation electrons   4.45355302633598     
 soft         electrons   133.584550272904     
 augmentation electrons   4.45355302633598     
 soft         electrons   133.584550272904     
 augmentation electrons   4.45355302633598     
 soft         electrons   133.584550272904     
 augmentation electrons   4.45355302633598     
 soft         electrons   133.584550272904     
 soft         electrons   133.584550272904     
 augmentation electrons   4.45355302633598     
 soft         electrons   133.584550272904     
 augmentation electrons   4.45355302633598     
 soft         electrons   133.584550272904     
 total        electrons   138.038103299240     
 augmentation electrons   4.45355302633598     
 soft         electrons   133.584550272904     
 augmentation electrons   4.45355302633598     
 soft         electrons   133.584550272904     
 total        electrons   138.038103299240     
 augmentation electrons   4.45355302633598     
 soft         electrons   133.584550272904     
 augmentation electrons   4.45355302633598     
 soft         electrons   133.584550272904     
 total        electrons   138.038103299240     
 augmentation electrons   4.45355302633598     
 soft         electrons   133.584550272904     
 augmentation electrons   4.45355302633598     
 soft         electrons   133.584550272904     
 total        electrons   138.038103299240     
 augmentation electrons   4.45355302633598     
 soft         electrons   133.584550272904     
 augmentation electrons   4.45355302633598     
 soft         electrons   133.584550272904     
 total        electrons   138.038103299240     
 augmentation electrons   4.45355302633598     
 soft         electrons   133.584550272904     
 augmentation electrons   4.45355302633598     
 soft         electrons   133.584550272904     
 total        electrons   138.038103299240     
 augmentation electrons   4.45355302633598     
 soft         electrons   133.584550272904     
 augmentation electrons   4.45355302633598     
 soft         electrons   133.584550272904     
 total        electrons   138.038103299240     
 augmentation electrons   4.45355302633598     
 soft         electrons   133.584550272904     
 augmentation electrons   4.45355302633598     
 soft         electrons   133.584550272904     
 total        electrons   138.038103299240     
 augmentation electrons   4.45355302633598     
 soft         electrons   133.584550272904     
 augmentation electrons   4.45355302633598     
 soft         electrons   133.584550272904     
 total        electrons   138.038103299240     
 augmentation electrons   4.45355302633598     
 soft         electrons   133.584550272904     
 augmentation electrons   4.45355302633598     
 soft         electrons   133.584550272904     
 total        electrons   138.038103299240     
 augmentation electrons   4.45355302633598     
 soft         electrons   133.584550272904     
 soft         electrons   133.584550272904     
 total        electrons   138.038103299240     
 augmentation electrons   4.45355302633598     
 soft         electrons   133.584550272904     
 total        electrons   138.038103299240     
 total        electrons   138.038103299240     
 soft         electrons   133.584550272904     
 total        electrons   138.038103299240     
 total        electrons   138.038103299240     
 total        electrons   138.038103299240     
 total        electrons   138.038103299240     
 total        electrons   138.038103299240     
 total        electrons   138.038103299240     
 total        electrons   138.038103299240     
 total        electrons   138.038103299240     
 total        electrons   138.038103299240     
 total        electrons   138.038103299240     
 total        electrons   138.038103299240     
 total        electrons   138.038103299240     
 total        electrons   138.038103299240     
 total        electrons   138.038103299240     
 total        electrons   138.038103299240     
 total        electrons   138.038103299240     
 total        electrons   138.038103299240     
 total        electrons   138.038103299240     
 total        electrons   138.038103299240     
 total        electrons   138.038103299240     
 total        electrons   138.038103299240     
 total        electrons   138.038103299240     
 total        electrons   138.038103299240     
 total        electrons   138.038103299240     
 total        electrons   138.038103299240     
 total        electrons   138.038103299240     
 total        electrons   138.038103299240     
 total        electrons   138.038103299240     
 total        electrons   138.038103299240     
 total        electrons   138.038103299240     
 total        electrons   138.038103299240     
 total        electrons   138.038103299240     
 total        electrons   138.038103299240     
 total        electrons   138.038103299240     
 total        electrons   138.038103299240     
 total        electrons   138.038103299240     
 total        electrons   138.038103299240     
 total        electrons   138.038103299240     
 total        electrons   138.038103299240     
 total        electrons   138.038103299240     
 total        electrons   138.038103299240     
 total        electrons   138.038103299240     
 total        electrons   138.038103299240     
 total        electrons   138.038103299240     
 total        electrons   138.038103299240     
 total        electrons   138.038103299240     
 total        electrons   138.038103299240     
 total        electrons   138.038103299240     
 total        electrons   138.038103299240     
 total        electrons   138.038103299240     
 total        electrons   138.038103299240     
 total        electrons   138.038103299240     
 total        electrons   138.038103299240     
 total        electrons   138.038103299240     
 total        electrons   138.038103299240     
 total        electrons   138.038103299240     
 total        electrons   138.038103299240     
 total        electrons   138.038103299240     
 total        electrons   138.038103299240     
