<?xml version="1.0" encoding="ISO-8859-1"?>
<modeling>
 <generator>
  <i name="program" type="string">vasp </i>
  <i name="version" type="string">5.4.4.18Apr17-6-g9f103f2a35  </i>
  <i name="subversion" type="string">(build Jun 08 2018 12:06:12) complex            parallel </i>
  <i name="platform" type="string">LinuxIFC </i>
  <i name="date" type="string">2019 06 06 </i>
  <i name="time" type="string">07:40:18 </i>
 </generator>
 <incar>
  <i type="string" name="SYSTEM"> Mg_slab_in_a_box</i>
  <i type="string" name="PREC">accurate</i>
  <i type="string" name="ALGO"> V</i>
  <i type="int" name="NELM">   300</i>
  <i type="int" name="NELMIN">     6</i>
  <i name="EDIFF">      0.00000500</i>
  <i name="ENCUT">    520.00000000</i>
  <i type="string" name="LREAL"> AUTO</i>
  <i type="logical" name="LPLANE"> T  </i>
  <i type="int" name="ISMEAR">    -5</i>
  <i type="logical" name="LWAVE"> F  </i>
  <i type="logical" name="LCHARG"> T  </i>
  <i type="logical" name="LVTOT"> T  </i>
  <i type="logical" name="LVHAR"> T  </i>
  <i type="logical" name="LSCALU"> F  </i>
  <i type="logical" name="LASPH"> T  </i>
  <i type="logical" name="LAECHG"> T  </i>
  <v type="int" name="KPOINT_BSE">    -1     0     0     0</v>
  <i type="int" name="NELM">   300</i>
  <i type="string" name="GGA"> BO</i>
  <i name="PARAM1">      0.18333333</i>
  <i name="PARAM2">      0.22000000</i>
  <i type="logical" name="LUSE_VDW"> T  </i>
  <i name="AGGAC">      0.00000000</i>
  <i type="logical" name="LDIPOL"> T  </i>
  <i type="int" name="IDIPOL">     3</i>
  <i type="logical" name="LASPH"> T  </i>
 </incar>
 <structure name="primitive_cell" >
  <crystal>
   <varray name="basis" >
    <v>       9.55575275       0.00000000       0.00000000 </v>
    <v>      -4.77787638       8.27552464       0.00000000 </v>
    <v>       0.00000000       0.00000000      32.62509537 </v>
   </varray>
   <i name="volume">   2579.95558872 </i>
   <varray name="rec_basis" >
    <v>       0.10464900       0.06041913       0.00000000 </v>
    <v>       0.00000000       0.12083826       0.00000000 </v>
    <v>       0.00000000       0.00000000       0.03065125 </v>
   </varray>
  </crystal>
  <varray name="positions" >
   <v>       0.00000000       0.00000000       0.00000000 </v>
   <v>       0.00000002      -0.33333328       0.00000000 </v>
   <v>      -0.33333330      -0.33333328       0.00000000 </v>
   <v>      -0.33333332       0.00000000       0.00000000 </v>
   <v>       0.33333334       0.00000000       0.00000000 </v>
   <v>       0.00000001       0.33333336       0.00000000 </v>
   <v>       0.33333335       0.33333336       0.00000000 </v>
   <v>      -0.22222216      -0.11111106       0.07982145 </v>
   <v>       0.11111116      -0.11111106       0.07982145 </v>
   <v>       0.11111113       0.22222222       0.07982145 </v>
   <v>      -0.22222219      -0.44444439       0.07982145 </v>
   <v>      -0.22222221       0.22222222       0.07982145 </v>
   <v>       0.44444450       0.22222222       0.07982145 </v>
   <v>      -0.00063368       0.00177762       0.15829218 </v>
   <v>       0.33333336      -0.33333328       0.00000000 </v>
   <v>      -0.33333332       0.33333336       0.00000000 </v>
   <v>       0.44444450      -0.44444439       0.07982145 </v>
   <v>       0.44444451      -0.11111106       0.07982145 </v>
   <v>       0.11111114      -0.44444439       0.07982145 </v>
   <v>       0.33152061       0.33322840       0.15713111 </v>
   <v>      -0.33063506      -0.33048282       0.15758571 </v>
   <v>       0.33390537       0.00174055       0.15733659 </v>
   <v>       0.00057025      -0.33031202       0.15784315 </v>
   <v>      -0.33441740       0.00043520       0.15790840 </v>
   <v>       0.00021789       0.33590117       0.15777477 </v>
   <v>       0.33301507      -0.32977644       0.15791535 </v>
   <v>      -0.33328332       0.33626383       0.15854859 </v>
   <v>       0.10863820      -0.10601555       0.23579137 </v>
   <v>       0.10659967       0.22359099       0.23655608 </v>
   <v>      -0.22006447      -0.10877217       0.23880946 </v>
   <v>      -0.22559093       0.22626230       0.23580725 </v>
   <v>       0.44882134       0.23374167       0.23634825 </v>
   <v>      -0.22291118      -0.44229406       0.23758894 </v>
   <v>       0.44671676      -0.44025096       0.23364198 </v>
   <v>       0.11565686      -0.43793457       0.23721465 </v>
   <v>       0.44348291      -0.11254891       0.23750416 </v>
   <v>       0.33153863       0.01280174       0.30959777 </v>
   <v>       0.32020900       0.33424916       0.31239521 </v>
   <v>      -0.00842115       0.34177957       0.31249418 </v>
   <v>      -0.00099834      -0.32200275       0.31516272 </v>
   <v>      -0.32979420       0.01330986       0.31441480 </v>
   <v>       0.00231510       0.01408479       0.33005254 </v>
   <v>      -0.34160123      -0.31831174       0.31637817 </v>
   <v>       0.43215723      -0.44401779       0.33289333 </v>
   <v>       0.32210066      -0.31807868       0.33017190 </v>
   <v>      -0.25358400      -0.42971711       0.35264413 </v>
   <v>      -0.34057651       0.33383146       0.33307916 </v>
   <v>      -0.21217136      -0.37949293       0.37944187 </v>
   <v>       0.25383560      -0.06081690       0.38373256 </v>
   <v>      -0.13524056       0.20760902       0.38531072 </v>
   <v>       0.00010437      -0.00036915       0.39638733 </v>
   <v>       0.09457733       0.00614079       0.41037269 </v>
   <v>      -0.03230654       0.06967879       0.41085925 </v>
   <v>       0.29073812      -0.03631203       0.41287388 </v>
   <v>       0.39260801       0.06796982       0.41082024 </v>
   <v>      -0.12050741       0.22271156       0.41588534 </v>
   <v>       0.35053101      -0.29235064       0.39572093 </v>
   <v>       0.45415013      -0.27775207       0.40516334 </v>
   <v>      -0.39083296       0.27136690       0.40025499 </v>
   <v>      -0.02109190       0.32786270       0.41820842 </v>
   <v>       0.34071779      -0.20090125       0.40711777 </v>
   <v>      -0.30076026       0.26341834       0.41318536 </v>
   <v>      -0.38215187       0.37303399       0.40942073 </v>
  </varray>
 </structure>
 <varray name="primitive_index" >
  <v type="int" >        1 </v>
  <v type="int" >        7 </v>
  <v type="int" >       25 </v>
  <v type="int" >       19 </v>
  <v type="int" >       10 </v>
  <v type="int" >        4 </v>
  <v type="int" >       13 </v>
  <v type="int" >       44 </v>
  <v type="int" >       32 </v>
  <v type="int" >       28 </v>
  <v type="int" >       42 </v>
  <v type="int" >       40 </v>
  <v type="int" >       34 </v>
  <v type="int" >        2 </v>
  <v type="int" >       16 </v>
  <v type="int" >       22 </v>
  <v type="int" >       36 </v>
  <v type="int" >       38 </v>
  <v type="int" >       30 </v>
  <v type="int" >       14 </v>
  <v type="int" >       26 </v>
  <v type="int" >       11 </v>
  <v type="int" >        8 </v>
  <v type="int" >       20 </v>
  <v type="int" >        5 </v>
  <v type="int" >       17 </v>
  <v type="int" >       23 </v>
  <v type="int" >       33 </v>
  <v type="int" >       29 </v>
  <v type="int" >       45 </v>
  <v type="int" >       41 </v>
  <v type="int" >       35 </v>
  <v type="int" >       43 </v>
  <v type="int" >       37 </v>
  <v type="int" >       31 </v>
  <v type="int" >       39 </v>
  <v type="int" >       12 </v>
  <v type="int" >       15 </v>
  <v type="int" >        6 </v>
  <v type="int" >        9 </v>
  <v type="int" >       21 </v>
  <v type="int" >        3 </v>
  <v type="int" >       27 </v>
  <v type="int" >       61 </v>
  <v type="int" >       18 </v>
  <v type="int" >       50 </v>
  <v type="int" >       24 </v>
  <v type="int" >       60 </v>
  <v type="int" >       55 </v>
  <v type="int" >       57 </v>
  <v type="int" >       46 </v>
  <v type="int" >       53 </v>
  <v type="int" >       52 </v>
  <v type="int" >       47 </v>
  <v type="int" >       54 </v>
  <v type="int" >       48 </v>
  <v type="int" >       51 </v>
  <v type="int" >       63 </v>
  <v type="int" >       49 </v>
  <v type="int" >       56 </v>
  <v type="int" >       62 </v>
  <v type="int" >       59 </v>
  <v type="int" >       58 </v>
 </varray>
 <kpoints>
  <generation param="Gamma">
   <v type="int" name="divisions">       3        3        1 </v>
   <v name="usershift">      0.00000000       0.00000000       0.00000000 </v>
   <v name="genvec1">      0.33333333       0.00000000       0.00000000 </v>
   <v name="genvec2">      0.00000000       0.33333333       0.00000000 </v>
   <v name="genvec3">      0.00000000       0.00000000       1.00000000 </v>
   <v name="shift">      0.00000000       0.00000000       0.00000000 </v>
  </generation>
  <varray name="kpointlist" >
   <v>       0.00000000       0.00000000       0.00000000 </v>
   <v>       0.33333333      -0.00000000       0.00000000 </v>
   <v>       0.00000000       0.33333333       0.00000000 </v>
   <v>       0.33333333       0.33333333       0.00000000 </v>
   <v>      -0.33333333       0.33333333       0.00000000 </v>
  </varray>
  <varray name="weights" >
   <v>       0.11111111 </v>
   <v>       0.22222222 </v>
   <v>       0.22222222 </v>
   <v>       0.22222222 </v>
   <v>       0.22222222 </v>
  </varray>
  <varray name="tetrahedronlist"  type="int" >
   <v type="int" >        2        2        3        3        4 </v>
   <v type="int" >        2        1        2        3        3 </v>
   <v type="int" >        2        1        1        2        3 </v>
   <v type="int" >        2        2        3        4        4 </v>
   <v type="int" >        2        2        2        3        4 </v>
   <v type="int" >        2        1        2        2        3 </v>
   <v type="int" >        2        2        4        4        5 </v>
   <v type="int" >        2        2        2        4        4 </v>
   <v type="int" >        4        2        2        2        4 </v>
   <v type="int" >        2        2        4        5        5 </v>
   <v type="int" >        2        2        2        4        5 </v>
   <v type="int" >        2        1        3        5        5 </v>
   <v type="int" >        2        1        2        5        5 </v>
   <v type="int" >        2        1        2        2        5 </v>
   <v type="int" >        2        1        3        3        5 </v>
   <v type="int" >        2        1        1        3        5 </v>
   <v type="int" >        2        1        1        2        5 </v>
   <v type="int" >        2        3        3        4        5 </v>
   <v type="int" >        4        3        3        3        4 </v>
   <v type="int" >        2        3        4        5        5 </v>
   <v type="int" >        2        3        4        4        5 </v>
   <v type="int" >        2        3        3        4        4 </v>
   <v type="int" >        4        4        5        5        5 </v>
   <v type="int" >        2        4        4        5        5 </v>
  </varray>
  <i name="volumeweight">      0.01851852 </i>
 </kpoints>
 <parameters>
  <separator name="general" >
   <i type="string" name="SYSTEM">Mg_slab_in_a_box</i>
   <i type="logical" name="LCOMPAT"> F  </i>
  </separator>
  <separator name="electronic" >
   <i type="string" name="PREC">accura</i>
   <i name="ENMAX">    520.00000000</i>
   <i name="ENAUG">    605.39200000</i>
   <i name="EDIFF">      0.00000500</i>
   <i type="int" name="IALGO">    48</i>
   <i type="int" name="IWAVPR">    10</i>
   <i type="int" name="NBANDS">   102</i>
   <i name="NELECT">    138.00000000</i>
   <i type="int" name="TURBO">     0</i>
   <i type="int" name="IRESTART">     0</i>
   <i type="int" name="NREBOOT">     0</i>
   <i type="int" name="NMIN">     0</i>
   <i name="EREF">      0.00000000</i>
   <separator name="electronic smearing" >
    <i type="int" name="ISMEAR">    -5</i>
    <i name="SIGMA">      0.20000000</i>
    <i name="KSPACING">      0.50000000</i>
    <i type="logical" name="KGAMMA"> T  </i>
   </separator>
   <separator name="electronic projectors" >
    <i type="logical" name="LREAL"> T  </i>
    <v name="ROPT">     -0.00025000     -0.00025000     -0.00025000</v>
    <i type="int" name="LMAXPAW">  -100</i>
    <i type="int" name="LMAXMIX">     2</i>
    <i type="logical" name="NLSPLINE"> F  </i>
   </separator>
   <separator name="electronic startup" >
    <i type="int" name="ISTART">     0</i>
    <i type="int" name="ICHARG">     2</i>
    <i type="int" name="INIWAV">     1</i>
   </separator>
   <separator name="electronic spin" >
    <i type="int" name="ISPIN">     1</i>
    <i type="logical" name="LNONCOLLINEAR"> F  </i>
    <v name="MAGMOM">      1.00000000      1.00000000      1.00000000      1.00000000      1.00000000      1.00000000      1.00000000      1.00000000      1.00000000      1.00000000      1.00000000      1.00000000      1.00000000      1.00000000      1.00000000      1.00000000      1.00000000      1.00000000      1.00000000      1.00000000
      1.00000000      1.00000000      1.00000000      1.00000000      1.00000000      1.00000000      1.00000000      1.00000000      1.00000000      1.00000000      1.00000000      1.00000000      1.00000000      1.00000000      1.00000000      1.00000000      1.00000000      1.00000000      1.00000000      1.00000000
      1.00000000      1.00000000      1.00000000      1.00000000      1.00000000      1.00000000      1.00000000      1.00000000      1.00000000      1.00000000      1.00000000      1.00000000      1.00000000      1.00000000      1.00000000      1.00000000      1.00000000      1.00000000      1.00000000      1.00000000
      1.00000000      1.00000000      1.00000000</v>
    <i name="NUPDOWN">     -1.00000000</i>
    <i type="logical" name="LSORBIT"> F  </i>
    <v name="SAXIS">      0.00000000      0.00000000      1.00000000</v>
    <i type="logical" name="LSPIRAL"> F  </i>
    <v name="QSPIRAL">      0.00000000      0.00000000      0.00000000</v>
    <i type="logical" name="LZEROZ"> F  </i>
   </separator>
   <separator name="electronic exchange-correlation" >
    <i type="logical" name="LASPH"> T  </i>
    <i type="logical" name="LMETAGGA"> F  </i>
   </separator>
   <separator name="electronic convergence" >
    <i type="int" name="NELM">   300</i>
    <i type="int" name="NELMDL">   -12</i>
    <i type="int" name="NELMIN">     6</i>
    <i name="ENINI">    520.00000000</i>
    <separator name="electronic convergence detail" >
     <i type="logical" name="LDIAG"> T  </i>
     <i type="logical" name="LSUBROT"> F  </i>
     <i name="WEIMIN">      0.00000000</i>
     <i name="EBREAK">      0.00000001</i>
     <i name="DEPER">      0.30000000</i>
     <i type="int" name="NRMM">     4</i>
     <i name="TIME">      0.40000000</i>
    </separator>
   </separator>
   <separator name="electronic mixer" >
    <i name="AMIX">      0.40000000</i>
    <i name="BMIX">      1.00000000</i>
    <i name="AMIN">      0.10000000</i>
    <i name="AMIX_MAG">      1.60000000</i>
    <i name="BMIX_MAG">      1.00000000</i>
    <separator name="electronic mixer details" >
     <i type="int" name="IMIX">     4</i>
     <i type="logical" name="MIXFIRST"> F  </i>
     <i type="int" name="MAXMIX">   -45</i>
     <i name="WC">    100.00000000</i>
     <i type="int" name="INIMIX">     1</i>
     <i type="int" name="MIXPRE">     1</i>
     <i type="int" name="MREMOVE">     5</i>
    </separator>
   </separator>
   <separator name="electronic dipolcorrection" >
    <i type="logical" name="LDIPOL"> T  </i>
    <i type="logical" name="LMONO"> F  </i>
    <i type="int" name="IDIPOL">     3</i>
    <i name="EPSILON">      1.00000000</i>
    <v name="DIPOL">   -100.00000000   -100.00000000   -100.00000000</v>
    <i name="EFIELD">      0.00000000</i>
   </separator>
  </separator>
  <separator name="grids" >
   <i type="int" name="NGX">    72</i>
   <i type="int" name="NGY">    72</i>
   <i type="int" name="NGZ">   250</i>
   <i type="int" name="NGXF">   144</i>
   <i type="int" name="NGYF">   144</i>
   <i type="int" name="NGZF">   500</i>
   <i type="logical" name="ADDGRID"> F  </i>
  </separator>
  <separator name="ionic" >
   <i type="int" name="NSW">     0</i>
   <i type="int" name="IBRION">    -1</i>
   <i type="int" name="MDALGO">     0</i>
   <i type="int" name="ISIF">     2</i>
   <i name="PSTRESS">      0.00000000</i>
   <i name="EDIFFG">      0.00005000</i>
   <i type="int" name="NFREE">     0</i>
   <i name="POTIM">      0.50000000</i>
   <i name="SMASS">     -3.00000000</i>
   <i name="SCALEE">      1.00000000</i>
  </separator>
  <separator name="ionic md" >
   <i name="TEBEG">      0.00010000</i>
   <i name="TEEND">      0.00010000</i>
   <i type="int" name="NBLOCK">     1</i>
   <i type="int" name="KBLOCK">     1</i>
   <i type="int" name="NPACO">   256</i>
   <i name="APACO">     16.00000000</i>
  </separator>
  <separator name="symmetry" >
   <i type="int" name="ISYM">     2</i>
   <i name="SYMPREC">      0.00001000</i>
  </separator>
  <separator name="dos" >
   <i type="int" name="LORBIT">     0</i>
   <v name="RWIGS">     -1.00000000     -1.00000000     -1.00000000</v>
   <i type="int" name="NEDOS">   301</i>
   <i name="EMIN">     10.00000000</i>
   <i name="EMAX">    -10.00000000</i>
   <i name="EFERMI">      0.00000000</i>
  </separator>
  <separator name="writing" >
   <i type="int" name="NWRITE">     2</i>
   <i type="logical" name="LWAVE"> F  </i>
   <i type="logical" name="LDOWNSAMPLE"> F  </i>
   <i type="logical" name="LCHARG"> T  </i>
   <i type="logical" name="LPARD"> F  </i>
   <i type="logical" name="LVTOT"> F  </i>
   <i type="logical" name="LVHAR"> T  </i>
   <i type="logical" name="LELF"> F  </i>
   <i type="logical" name="LOPTICS"> F  </i>
   <v name="STM">      0.00000000      0.00000000      0.00000000      0.00000000      0.00000000      0.00000000      0.00000000</v>
  </separator>
  <separator name="performance" >
   <i type="int" name="NPAR">     3</i>
   <i type="int" name="NSIM">     4</i>
   <i type="int" name="NBLK">    -1</i>
   <i type="logical" name="LPLANE"> T  </i>
   <i type="logical" name="LSCALAPACK"> T  </i>
   <i type="logical" name="LSCAAWARE"> F  </i>
   <i type="logical" name="LSCALU"> F  </i>
   <i type="logical" name="LASYNC"> F  </i>
   <i type="logical" name="LORBITALREAL"> F  </i>
  </separator>
  <separator name="miscellaneous" >
   <i type="int" name="IDIOT">     3</i>
   <i type="int" name="ISPECIAL">     0</i>
   <i type="logical" name="LMUSIC"> F  </i>
   <v name="POMASS">     24.30500000     16.00000000      1.00000000</v>
   <v name="DARWINR">      0.00000000      0.00000000      0.00000000</v>
   <v name="DARWINV">      1.00000000      1.00000000      1.00000000</v>
   <i type="logical" name="LCORR"> T  </i>
  </separator>
  <i type="logical" name="GGA_COMPAT"> T  </i>
  <i type="logical" name="LBERRY"> F  </i>
  <i type="int" name="ICORELEVEL">     0</i>
  <i type="logical" name="LDAU"> F  </i>
  <i type="int" name="I_CONSTRAINED_M">     0</i>
  <separator name="electronic exchange-correlation" >
   <i type="string" name="GGA">BO</i>
   <i type="int" name="VOSKOWN">     0</i>
   <i type="logical" name="LHFCALC"> F  </i>
   <i type="string" name="PRECFOCK"></i>
   <i type="logical" name="LSYMGRAD"> F  </i>
   <i type="logical" name="LHFONE"> F  </i>
   <i type="logical" name="LRHFCALC"> F  </i>
   <i type="logical" name="LTHOMAS"> F  </i>
   <i type="logical" name="LMODELHF"> F  </i>
   <i name="ENCUT4O">     -1.00000000</i>
   <i type="int" name="EXXOEP">     0</i>
   <i type="int" name="FOURORBIT">     0</i>
   <i name="AEXX">      0.00000000</i>
   <i name="HFALPHA">      0.00000000</i>
   <i name="MCALPHA">      0.00000000</i>
   <i name="ALDAX">      1.00000000</i>
   <i name="AGGAX">      1.00000000</i>
   <i name="ALDAC">      1.00000000</i>
   <i name="AGGAC">      0.00000000</i>
   <i type="int" name="NKREDX">     1</i>
   <i type="int" name="NKREDY">     1</i>
   <i type="int" name="NKREDZ">     1</i>
   <i type="logical" name="SHIFTRED"> F  </i>
   <i type="logical" name="ODDONLY"> F  </i>
   <i type="logical" name="EVENONLY"> F  </i>
   <i type="int" name="LMAXFOCK">     0</i>
   <i type="int" name="NMAXFOCKAE">     0</i>
   <i type="logical" name="LFOCKAEDFT"> F  </i>
   <i name="HFSCREEN">      0.00000000</i>
   <i name="HFSCREENC">      0.00000000</i>
   <i type="int" name="NBANDSGWLOW">     0</i>
  </separator>
  <separator name="vdW DFT" >
   <i type="logical" name="LUSE_VDW"> T  </i>
   <i name="Zab_VDW">     -0.84910000</i>
   <i name="PARAM1">      0.18333333</i>
   <i name="PARAM2">      0.22000000</i>
   <i name="PARAM3">      0.00000000</i>
  </separator>
  <separator name="model GW" >
   <i type="int" name="MODEL_GW">     0</i>
   <i name="MODEL_EPS0">     24.57100561</i>
   <i name="MODEL_ALPHA">      1.00000000</i>
  </separator>
  <separator name="linear response parameters" >
   <i type="logical" name="LEPSILON"> F  </i>
   <i type="logical" name="LRPA"> F  </i>
   <i type="logical" name="LNABLA"> F  </i>
   <i type="logical" name="LVEL"> F  </i>
   <i type="int" name="KINTER">     0</i>
   <i name="CSHIFT">      0.10000000</i>
   <i name="OMEGAMAX">     -1.00000000</i>
   <i name="DEG_THRESHOLD">      0.00200000</i>
   <i name="RTIME">     -0.10000000</i>
   <i name="WPLASMAI">      0.00000000</i>
   <v name="DFIELD">      0.00000000      0.00000000      0.00000000</v>
   <v name="WPLASMA">      0.00000000      0.00000000      0.00000000      0.00000000      0.00000000      0.00000000      0.00000000      0.00000000      0.00000000</v>
  </separator>
  <separator name="orbital magnetization" >
   <i type="logical" name="NUCIND"> F  </i>
   <v name="MAGPOS">      0.00000000      0.00000000      0.00000000</v>
   <i type="logical" name="LNICSALL"> T  </i>
   <i type="logical" name="ORBITALMAG"> F  </i>
   <i type="logical" name="LMAGBLOCH"> F  </i>
   <i type="logical" name="LCHIMAG"> F  </i>
   <i type="logical" name="LGAUGE"> T  </i>
   <i type="int" name="MAGATOM">     0</i>
   <v name="MAGDIPOL">      0.00000000      0.00000000      0.00000000</v>
   <v name="AVECCONST">      0.00000000      0.00000000      0.00000000</v>
  </separator>
  <separator name="response functions" >
   <i type="logical" name="LADDER"> F  </i>
   <i type="logical" name="LRPAFORCE"> F  </i>
   <i type="logical" name="LFXC"> F  </i>
   <i type="logical" name="LHARTREE"> T  </i>
   <i type="int" name="IBSE">     0</i>
   <v type="int" name="KPOINT">    -1     0     0     0</v>
   <i type="logical" name="LTCTE"> F  </i>
   <i type="logical" name="LTETE"> F  </i>
   <i type="logical" name="LTRIPLET"> F  </i>
   <i type="logical" name="LFXCEPS"> F  </i>
   <i type="logical" name="LFXHEG"> F  </i>
   <i type="int" name="NATURALO">     2</i>
   <i type="logical" name="L2ORDER"> F  </i>
   <i type="logical" name="LMP2LT"> F  </i>
   <i type="logical" name="LUSEW"> F  </i>
   <i name="ENCUTGW">     -2.00000000</i>
   <i name="ENCUTGWSOFT">     -2.00000000</i>
   <i name="ENCUTLF">     -1.00000000</i>
   <i type="int" name="LMAXMP2">    -1</i>
   <i name="SCISSOR">      0.00000000</i>
   <i type="int" name="NOMEGA">     0</i>
   <i type="int" name="NOMEGAR">     0</i>
   <i type="int" name="NBANDSGW">    -1</i>
   <i type="int" name="NBANDSO">    -1</i>
   <i type="int" name="NBANDSV">    -1</i>
   <i type="int" name="NELM">   300</i>
   <i type="int" name="NELMHF">     1</i>
   <i type="int" name="DIM">     3</i>
   <i type="int" name="ANTIRES">     0</i>
   <i name="OMEGAMAX">    -30.00000000</i>
   <i name="OMEGAMIN">    -30.00000000</i>
   <i name="OMEGATL">   -200.00000000</i>
   <i type="int" name="OMEGAGRID">   140</i>
   <i name="CSHIFT">     -0.10000000</i>
   <i type="logical" name="SELFENERGY"> F  </i>
   <i type="logical" name="LSPECTRAL"> F  </i>
   <i type="logical" name="LSPECTRALGW"> F  </i>
   <i type="logical" name="LSINGLES"> F  </i>
   <i type="logical" name="LFERMIGW"> F  </i>
   <i type="logical" name="ODDONLYGW"> F  </i>
   <i type="logical" name="EVENONLYGW"> F  </i>
   <i type="int" name="NKREDLFX">     1</i>
   <i type="int" name="NKREDLFY">     1</i>
   <i type="int" name="NKREDLFZ">     1</i>
   <i type="int" name="MAXMEM">  2800</i>
   <i type="int" name="TELESCOPE">     0</i>
   <i type="int" name="TAUPAR">     1</i>
   <i type="int" name="OMEGAPAR">    -1</i>
   <i name="LAMBDA">      1.00000000</i>
  </separator>
  <separator name="External order field" >
   <i name="OFIELD_KAPPA">      0.00000000</i>
   <v name="OFIELD_K">      0.00000000      0.00000000      0.00000000</v>
   <i name="OFIELD_Q6_NEAR">      0.00000000</i>
   <i name="OFIELD_Q6_FAR">      0.00000000</i>
   <i name="OFIELD_A">      0.00000000</i>
  </separator>
 </parameters>
 <atominfo>
  <atoms>      63 </atoms>
  <types>       3 </types>
  <array name="atoms" >
   <dimension dim="1">ion</dimension>
   <field type="string">element</field>
   <field type="int">atomtype</field>
   <set>
    <rc><c>Mg</c><c>   1</c></rc>
    <rc><c>Mg</c><c>   1</c></rc>
    <rc><c>Mg</c><c>   1</c></rc>
    <rc><c>Mg</c><c>   1</c></rc>
    <rc><c>Mg</c><c>   1</c></rc>
    <rc><c>Mg</c><c>   1</c></rc>
    <rc><c>Mg</c><c>   1</c></rc>
    <rc><c>Mg</c><c>   1</c></rc>
    <rc><c>Mg</c><c>   1</c></rc>
    <rc><c>Mg</c><c>   1</c></rc>
    <rc><c>Mg</c><c>   1</c></rc>
    <rc><c>Mg</c><c>   1</c></rc>
    <rc><c>Mg</c><c>   1</c></rc>
    <rc><c>Mg</c><c>   1</c></rc>
    <rc><c>Mg</c><c>   1</c></rc>
    <rc><c>Mg</c><c>   1</c></rc>
    <rc><c>Mg</c><c>   1</c></rc>
    <rc><c>Mg</c><c>   1</c></rc>
    <rc><c>Mg</c><c>   1</c></rc>
    <rc><c>Mg</c><c>   1</c></rc>
    <rc><c>Mg</c><c>   1</c></rc>
    <rc><c>Mg</c><c>   1</c></rc>
    <rc><c>Mg</c><c>   1</c></rc>
    <rc><c>Mg</c><c>   1</c></rc>
    <rc><c>Mg</c><c>   1</c></rc>
    <rc><c>Mg</c><c>   1</c></rc>
    <rc><c>Mg</c><c>   1</c></rc>
    <rc><c>Mg</c><c>   1</c></rc>
    <rc><c>Mg</c><c>   1</c></rc>
    <rc><c>Mg</c><c>   1</c></rc>
    <rc><c>Mg</c><c>   1</c></rc>
    <rc><c>Mg</c><c>   1</c></rc>
    <rc><c>Mg</c><c>   1</c></rc>
    <rc><c>Mg</c><c>   1</c></rc>
    <rc><c>Mg</c><c>   1</c></rc>
    <rc><c>Mg</c><c>   1</c></rc>
    <rc><c>Mg</c><c>   1</c></rc>
    <rc><c>Mg</c><c>   1</c></rc>
    <rc><c>Mg</c><c>   1</c></rc>
    <rc><c>Mg</c><c>   1</c></rc>
    <rc><c>Mg</c><c>   1</c></rc>
    <rc><c>Mg</c><c>   1</c></rc>
    <rc><c>Mg</c><c>   1</c></rc>
    <rc><c>Mg</c><c>   1</c></rc>
    <rc><c>Mg</c><c>   1</c></rc>
    <rc><c>O </c><c>   2</c></rc>
    <rc><c>O </c><c>   2</c></rc>
    <rc><c>O </c><c>   2</c></rc>
    <rc><c>O </c><c>   2</c></rc>
    <rc><c>O </c><c>   2</c></rc>
    <rc><c>O </c><c>   2</c></rc>
    <rc><c>H </c><c>   3</c></rc>
    <rc><c>H </c><c>   3</c></rc>
    <rc><c>H </c><c>   3</c></rc>
    <rc><c>H </c><c>   3</c></rc>
    <rc><c>H </c><c>   3</c></rc>
    <rc><c>H </c><c>   3</c></rc>
    <rc><c>H </c><c>   3</c></rc>
    <rc><c>H </c><c>   3</c></rc>
    <rc><c>H </c><c>   3</c></rc>
    <rc><c>H </c><c>   3</c></rc>
    <rc><c>H </c><c>   3</c></rc>
    <rc><c>H </c><c>   3</c></rc>
   </set>
  </array>
  <array name="atomtypes" >
   <dimension dim="1">type</dimension>
   <field type="int">atomspertype</field>
   <field type="string">element</field>
   <field>mass</field>
   <field>valence</field>
   <field type="string">pseudopotential</field>
   <set>
    <rc><c>  45</c><c>Mg</c><c>     24.30500000</c><c>      2.00000000</c><c>  PAW_PBE Mg 13Apr2007                  </c></rc>
    <rc><c>   6</c><c>O </c><c>     16.00000000</c><c>      6.00000000</c><c>  PAW_PBE O 08Apr2002                   </c></rc>
    <rc><c>  12</c><c>H </c><c>      1.00000000</c><c>      1.00000000</c><c>  PAW_PBE H 15Jun2001                   </c></rc>
   </set>
  </array>
 </atominfo>
 <structure name="initialpos" >
  <crystal>
   <varray name="basis" >
    <v>       9.55575275       0.00000000       0.00000000 </v>
    <v>      -4.77787638       8.27552464       0.00000000 </v>
    <v>       0.00000000       0.00000000      32.62509537 </v>
   </varray>
   <i name="volume">   2579.95558872 </i>
   <varray name="rec_basis" >
    <v>       0.10464900       0.06041913       0.00000000 </v>
    <v>       0.00000000       0.12083826       0.00000000 </v>
    <v>       0.00000000       0.00000000       0.03065125 </v>
   </varray>
  </crystal>
  <varray name="positions" >
   <v>       0.00000000       0.00000000       0.00000000 </v>
   <v>       0.99936632       0.00177762       0.15829218 </v>
   <v>       0.00231510       0.01408479       0.33005254 </v>
   <v>       0.00000001       0.33333336       0.00000000 </v>
   <v>       0.00021789       0.33590117       0.15777477 </v>
   <v>       0.99157885       0.34177957       0.31249418 </v>
   <v>       0.00000002       0.66666672       0.00000000 </v>
   <v>       0.00057025       0.66968798       0.15784315 </v>
   <v>       0.99900166       0.67799725       0.31516272 </v>
   <v>       0.33333334       0.00000000       0.00000000 </v>
   <v>       0.33390537       0.00174055       0.15733659 </v>
   <v>       0.33153863       0.01280174       0.30959777 </v>
   <v>       0.33333335       0.33333336       0.00000000 </v>
   <v>       0.33152061       0.33322840       0.15713111 </v>
   <v>       0.32020900       0.33424916       0.31239521 </v>
   <v>       0.33333336       0.66666672       0.00000000 </v>
   <v>       0.33301507       0.67022356       0.15791535 </v>
   <v>       0.32210066       0.68192132       0.33017190 </v>
   <v>       0.66666668       0.00000000       0.00000000 </v>
   <v>       0.66558260       0.00043520       0.15790840 </v>
   <v>       0.67020580       0.01330986       0.31441480 </v>
   <v>       0.66666668       0.33333336       0.00000000 </v>
   <v>       0.66671668       0.33626383       0.15854859 </v>
   <v>       0.65942349       0.33383146       0.33307916 </v>
   <v>       0.66666670       0.66666672       0.00000000 </v>
   <v>       0.66936494       0.66951718       0.15758571 </v>
   <v>       0.65839877       0.68168826       0.31637817 </v>
   <v>       0.11111113       0.22222222       0.07982145 </v>
   <v>       0.10659967       0.22359099       0.23655608 </v>
   <v>       0.11111114       0.55555561       0.07982145 </v>
   <v>       0.11565686       0.56206543       0.23721465 </v>
   <v>       0.11111116       0.88888894       0.07982145 </v>
   <v>       0.10863820       0.89398445       0.23579137 </v>
   <v>       0.44444450       0.22222222       0.07982145 </v>
   <v>       0.44882134       0.23374167       0.23634825 </v>
   <v>       0.44444450       0.55555561       0.07982145 </v>
   <v>       0.44671676       0.55974904       0.23364198 </v>
   <v>       0.44444451       0.88888894       0.07982145 </v>
   <v>       0.44348291       0.88745109       0.23750416 </v>
   <v>       0.77777779       0.22222222       0.07982145 </v>
   <v>       0.77440907       0.22626230       0.23580725 </v>
   <v>       0.77777781       0.55555561       0.07982145 </v>
   <v>       0.77708882       0.55770594       0.23758894 </v>
   <v>       0.77777784       0.88888894       0.07982145 </v>
   <v>       0.77993553       0.89122783       0.23880946 </v>
   <v>       0.00010437       0.99963085       0.39638733 </v>
   <v>       0.29073812       0.96368797       0.41287388 </v>
   <v>       0.87949259       0.22271156       0.41588534 </v>
   <v>       0.60916704       0.27136690       0.40025499 </v>
   <v>       0.74641600       0.57028289       0.35264413 </v>
   <v>       0.35053101       0.70764936       0.39572093 </v>
   <v>       0.96769346       0.06967879       0.41085925 </v>
   <v>       0.09457733       0.00614079       0.41037269 </v>
   <v>       0.39260801       0.06796982       0.41082024 </v>
   <v>       0.25383560       0.93918310       0.38373256 </v>
   <v>       0.97890810       0.32786270       0.41820842 </v>
   <v>       0.86475944       0.20760902       0.38531072 </v>
   <v>       0.61784813       0.37303399       0.40942073 </v>
   <v>       0.69923974       0.26341834       0.41318536 </v>
   <v>       0.78782864       0.62050707       0.37944187 </v>
   <v>       0.43215723       0.55598221       0.33289333 </v>
   <v>       0.34071779       0.79909875       0.40711777 </v>
   <v>       0.45415013       0.72224793       0.40516334 </v>
  </varray>
  <varray name="selective"  type="logical" >
   <v type="logical" >  F  F  F </v>
   <v type="logical" >  T  T  T </v>
   <v type="logical" >  T  T  T </v>
   <v type="logical" >  F  F  F </v>
   <v type="logical" >  T  T  T </v>
   <v type="logical" >  T  T  T </v>
   <v type="logical" >  F  F  F </v>
   <v type="logical" >  T  T  T </v>
   <v type="logical" >  T  T  T </v>
   <v type="logical" >  F  F  F </v>
   <v type="logical" >  T  T  T </v>
   <v type="logical" >  T  T  T </v>
   <v type="logical" >  F  F  F </v>
   <v type="logical" >  T  T  T </v>
   <v type="logical" >  T  T  T </v>
   <v type="logical" >  F  F  F </v>
   <v type="logical" >  T  T  T </v>
   <v type="logical" >  T  T  T </v>
   <v type="logical" >  F  F  F </v>
   <v type="logical" >  T  T  T </v>
   <v type="logical" >  T  T  T </v>
   <v type="logical" >  F  F  F </v>
   <v type="logical" >  T  T  T </v>
   <v type="logical" >  T  T  T </v>
   <v type="logical" >  F  F  F </v>
   <v type="logical" >  T  T  T </v>
   <v type="logical" >  T  T  T </v>
   <v type="logical" >  F  F  F </v>
   <v type="logical" >  T  T  T </v>
   <v type="logical" >  F  F  F </v>
   <v type="logical" >  T  T  T </v>
   <v type="logical" >  F  F  F </v>
   <v type="logical" >  T  T  T </v>
   <v type="logical" >  F  F  F </v>
   <v type="logical" >  T  T  T </v>
   <v type="logical" >  F  F  F </v>
   <v type="logical" >  T  T  T </v>
   <v type="logical" >  F  F  F </v>
   <v type="logical" >  T  T  T </v>
   <v type="logical" >  F  F  F </v>
   <v type="logical" >  T  T  T </v>
   <v type="logical" >  F  F  F </v>
   <v type="logical" >  T  T  T </v>
   <v type="logical" >  F  F  F </v>
   <v type="logical" >  T  T  T </v>
   <v type="logical" >  T  T  T </v>
   <v type="logical" >  T  T  T </v>
   <v type="logical" >  T  T  T </v>
   <v type="logical" >  T  T  T </v>
   <v type="logical" >  T  T  T </v>
   <v type="logical" >  T  T  T </v>
   <v type="logical" >  T  T  T </v>
   <v type="logical" >  T  T  T </v>
   <v type="logical" >  T  T  T </v>
   <v type="logical" >  T  T  T </v>
   <v type="logical" >  T  T  T </v>
   <v type="logical" >  T  T  T </v>
   <v type="logical" >  T  T  T </v>
   <v type="logical" >  T  T  T </v>
   <v type="logical" >  T  T  T </v>
   <v type="logical" >  T  T  T </v>
   <v type="logical" >  T  T  T </v>
   <v type="logical" >  T  T  T </v>
  </varray>
  <nose>
   <v>      -3.00000000       0.00000000       0.00010000       0.00010000 </v>
  </nose>
 </structure>
 <calculation>
  <scstep>
   <time name="diag">    0.48    0.48</time>
   <time name="diis">    1.06    1.06</time>
   <time name="orth">    0.07    0.07</time>
   <time name="total">    7.10    7.29</time>
   <dipole>
    <v name="dipole">      0.00000000       0.00000000      -0.00030903 </v>
    <i name="Tr[quadrupol]">  -1850.38814105 </i>
    <i name="Echarged">      0.00000000 </i>
    <i name="Edipol_quadrupol">      0.00000000 </i>
    <i name="Eion">      0.00000000 </i>
   </dipole>
   <energy>
    <i name="alphaZ">     63.16235624 </i>
    <i name="ewald">  13092.30961028 </i>
    <i name="hartreedc"> -16315.51873581 </i>
    <i name="XCdc">  -2050.89043946 </i>
    <i name="pawpsdc">   5135.15659847 </i>
    <i name="pawaedc">  -2719.01140655 </i>
    <i name="eentropy">      0.00000000 </i>
    <i name="bandstr">    213.51609873 </i>
    <i name="atom">   3827.98814510 </i>
    <i name="e_fr_energy">   1246.71222701 </i>
    <i name="e_wo_entrp">   1246.71222701 </i>
    <i name="e_0_energy">   1246.71222701 </i>
   </energy>
  </scstep>
  <scstep>
   <time name="diag">    0.49    0.51</time>
   <time name="diis">    1.05    1.05</time>
   <time name="orth">    0.07    0.07</time>
   <time name="total">    1.61    1.63</time>
   <dipole>
    <v name="dipole">      0.00000000       0.00000000      -0.00030903 </v>
    <i name="Tr[quadrupol]">  -1850.38814105 </i>
    <i name="Echarged">      0.00000000 </i>
    <i name="Edipol_quadrupol">      0.00000000 </i>
    <i name="Eion">      0.00000000 </i>
   </dipole>
   <energy>
    <i name="e_fr_energy">    546.84303778 </i>
    <i name="e_wo_entrp">    546.84303778 </i>
    <i name="e_0_energy">    546.84303778 </i>
   </energy>
  </scstep>
  <scstep>
   <time name="diag">    0.49    0.51</time>
   <time name="diis">    1.05    1.05</time>
   <time name="orth">    0.07    0.07</time>
   <time name="total">    1.61    1.63</time>
   <dipole>
    <v name="dipole">      0.00000000       0.00000000      -0.00030903 </v>
    <i name="Tr[quadrupol]">  -1850.38814105 </i>
    <i name="Echarged">      0.00000000 </i>
    <i name="Edipol_quadrupol">      0.00000000 </i>
    <i name="Eion">      0.00000000 </i>
   </dipole>
   <energy>
    <i name="e_fr_energy">    310.36557244 </i>
    <i name="e_wo_entrp">    310.36557244 </i>
    <i name="e_0_energy">    310.36557244 </i>
   </energy>
  </scstep>
  <scstep>
   <time name="diag">    0.49    0.51</time>
   <time name="diis">    1.05    1.05</time>
   <time name="orth">    0.07    0.07</time>
   <time name="total">    1.61    1.63</time>
   <dipole>
    <v name="dipole">      0.00000000       0.00000000      -0.00030903 </v>
    <i name="Tr[quadrupol]">  -1850.38814105 </i>
    <i name="Echarged">      0.00000000 </i>
    <i name="Edipol_quadrupol">      0.00000000 </i>
    <i name="Eion">      0.00000000 </i>
   </dipole>
   <energy>
    <i name="e_fr_energy">    135.71358318 </i>
    <i name="e_wo_entrp">    135.71358318 </i>
    <i name="e_0_energy">    135.71358318 </i>
   </energy>
  </scstep>
  <scstep>
   <time name="diag">    0.49    0.51</time>
   <time name="diis">    1.05    1.05</time>
   <time name="orth">    0.07    0.07</time>
   <time name="total">    1.61    1.63</time>
   <dipole>
    <v name="dipole">      0.00000000       0.00000000      -0.00030903 </v>
    <i name="Tr[quadrupol]">  -1850.38814105 </i>
    <i name="Echarged">      0.00000000 </i>
    <i name="Edipol_quadrupol">      0.00000000 </i>
    <i name="Eion">      0.00000000 </i>
   </dipole>
   <energy>
    <i name="e_fr_energy">     18.15225890 </i>
    <i name="e_wo_entrp">     18.15225890 </i>
    <i name="e_0_energy">     18.15225890 </i>
   </energy>
  </scstep>
  <scstep>
   <time name="diag">    0.49    0.51</time>
   <time name="diis">    1.07    1.07</time>
   <time name="orth">    0.07    0.07</time>
   <time name="total">    1.63    1.66</time>
   <dipole>
    <v name="dipole">      0.00000000       0.00000000      -0.00030903 </v>
    <i name="Tr[quadrupol]">  -1850.38814105 </i>
    <i name="Echarged">      0.00000000 </i>
    <i name="Edipol_quadrupol">      0.00000000 </i>
    <i name="Eion">      0.00000000 </i>
   </dipole>
   <energy>
    <i name="e_fr_energy">    -45.08326727 </i>
    <i name="e_wo_entrp">    -45.08326727 </i>
    <i name="e_0_energy">    -45.08326727 </i>
   </energy>
  </scstep>
  <scstep>
   <time name="diag">    0.49    0.51</time>
   <time name="diis">    1.06    1.06</time>
   <time name="orth">    0.07    0.07</time>
   <time name="total">    1.62    1.64</time>
   <dipole>
    <v name="dipole">      0.00000000       0.00000000      -0.00030903 </v>
    <i name="Tr[quadrupol]">  -1850.38814105 </i>
    <i name="Echarged">      0.00000000 </i>
    <i name="Edipol_quadrupol">      0.00000000 </i>
    <i name="Eion">      0.00000000 </i>
   </dipole>
   <energy>
    <i name="e_fr_energy">    -71.55958524 </i>
    <i name="e_wo_entrp">    -71.55958524 </i>
    <i name="e_0_energy">    -71.55958524 </i>
   </energy>
  </scstep>
  <scstep>
   <time name="diag">    0.49    0.51</time>
   <time name="diis">    1.05    1.05</time>
   <time name="orth">    0.07    0.07</time>
   <time name="total">    1.61    1.64</time>
   <dipole>
    <v name="dipole">      0.00000000       0.00000000      -0.00030903 </v>
    <i name="Tr[quadrupol]">  -1850.38814105 </i>
    <i name="Echarged">      0.00000000 </i>
    <i name="Edipol_quadrupol">      0.00000000 </i>
    <i name="Eion">      0.00000000 </i>
   </dipole>
   <energy>
    <i name="e_fr_energy">    -78.50175966 </i>
    <i name="e_wo_entrp">    -78.50175966 </i>
    <i name="e_0_energy">    -78.50175966 </i>
   </energy>
  </scstep>
  <scstep>
   <time name="diag">    0.49    0.51</time>
   <time name="diis">    2.72    2.72</time>
   <time name="orth">    0.07    0.07</time>
   <time name="total">    3.29    3.30</time>
   <dipole>
    <v name="dipole">      0.00000000       0.00000000      -0.00030903 </v>
    <i name="Tr[quadrupol]">  -1850.38814105 </i>
    <i name="Echarged">      0.00000000 </i>
    <i name="Edipol_quadrupol">      0.00000000 </i>
    <i name="Eion">      0.00000000 </i>
   </dipole>
   <energy>
    <i name="e_fr_energy">    -80.62657645 </i>
    <i name="e_wo_entrp">    -80.62657645 </i>
    <i name="e_0_energy">    -80.62657645 </i>
   </energy>
  </scstep>
  <scstep>
   <time name="diag">    0.49    0.51</time>
   <time name="diis">    3.19    3.19</time>
   <time name="orth">    0.07    0.07</time>
   <time name="total">    3.75    3.78</time>
   <dipole>
    <v name="dipole">      0.00000000       0.00000000      -0.00030903 </v>
    <i name="Tr[quadrupol]">  -1850.38814105 </i>
    <i name="Echarged">      0.00000000 </i>
    <i name="Edipol_quadrupol">      0.00000000 </i>
    <i name="Eion">      0.00000000 </i>
   </dipole>
   <energy>
    <i name="e_fr_energy">    -80.91018293 </i>
    <i name="e_wo_entrp">    -80.91018293 </i>
    <i name="e_0_energy">    -80.91018293 </i>
   </energy>
  </scstep>
  <scstep>
   <time name="diag">    0.49    0.51</time>
   <time name="diis">    3.10    3.11</time>
   <time name="orth">    0.07    0.07</time>
   <time name="total">    3.66    3.69</time>
   <dipole>
    <v name="dipole">      0.00000000       0.00000000      -0.00030903 </v>
    <i name="Tr[quadrupol]">  -1850.38814105 </i>
    <i name="Echarged">      0.00000000 </i>
    <i name="Edipol_quadrupol">      0.00000000 </i>
    <i name="Eion">      0.00000000 </i>
   </dipole>
   <energy>
    <i name="e_fr_energy">    -80.91034012 </i>
    <i name="e_wo_entrp">    -80.91034012 </i>
    <i name="e_0_energy">    -80.91034012 </i>
   </energy>
  </scstep>
  <scstep>
   <time name="diag">    0.49    0.51</time>
   <time name="diis">    3.26    3.26</time>
   <time name="orth">    0.07    0.07</time>
   <time name="total">    3.95    3.98</time>
   <dipole>
    <v name="dipole">      0.00000000       0.00000000      -0.00030903 </v>
    <i name="Tr[quadrupol]">  -1850.38814105 </i>
    <i name="Echarged">      0.00000000 </i>
    <i name="Edipol_quadrupol">      0.00000000 </i>
    <i name="Eion">      0.00000000 </i>
   </dipole>
   <energy>
    <i name="e_fr_energy">    -80.91292555 </i>
    <i name="e_wo_entrp">    -80.91292555 </i>
    <i name="e_0_energy">    -80.91292555 </i>
   </energy>
  </scstep>
  <scstep>
   <time name="diag">    0.49    0.49</time>
   <time name="diis">    2.61    2.61</time>
   <time name="orth">    0.07    0.07</time>
   <time name="total">    8.41    8.43</time>
   <dipole>
    <v name="dipole">      0.00000000       0.00000000       0.20588410 </v>
    <i name="Tr[quadrupol]">  -1862.51945213 </i>
    <i name="Echarged">      0.00000000 </i>
    <i name="Edipol_quadrupol">      0.00000000 </i>
    <i name="Eion">      0.00000000 </i>
   </dipole>
   <energy>
    <i name="e_fr_energy">    -70.27732244 </i>
    <i name="e_wo_entrp">    -70.27732244 </i>
    <i name="e_0_energy">    -70.27732244 </i>
   </energy>
  </scstep>
  <scstep>
   <time name="diag">    0.48    0.48</time>
   <time name="diis">    3.02    3.02</time>
   <time name="orth">    0.07    0.07</time>
   <time name="total">    8.75    8.78</time>
   <dipole>
    <v name="dipole">      0.00000000       0.00000000      -1.42568276 </v>
    <i name="Tr[quadrupol]">  -1853.44944309 </i>
    <i name="Echarged">      0.00000000 </i>
    <i name="Edipol_quadrupol">      0.00000000 </i>
    <i name="Eion">      0.00000000 </i>
   </dipole>
   <energy>
    <i name="e_fr_energy">    -79.04989498 </i>
    <i name="e_wo_entrp">    -79.04989498 </i>
    <i name="e_0_energy">    -79.04989498 </i>
   </energy>
  </scstep>
  <scstep>
   <time name="diag">    0.48    0.48</time>
   <time name="diis">    2.61    2.61</time>
   <time name="orth">    0.07    0.07</time>
   <time name="total">    8.61    8.64</time>
   <dipole>
    <v name="dipole">      0.00000000       0.00000000       0.08387960 </v>
    <i name="Tr[quadrupol]">  -1862.60643499 </i>
    <i name="Echarged">      0.00000000 </i>
    <i name="Edipol_quadrupol">      0.00000000 </i>
    <i name="Eion">      0.00000000 </i>
   </dipole>
   <energy>
    <i name="e_fr_energy">    -70.06047943 </i>
    <i name="e_wo_entrp">    -70.06047943 </i>
    <i name="e_0_energy">    -70.06047943 </i>
   </energy>
  </scstep>
  <scstep>
   <time name="diag">    0.48    0.48</time>
   <time name="diis">    2.66    2.66</time>
   <time name="orth">    0.07    0.07</time>
   <time name="total">    8.41    8.43</time>
   <dipole>
    <v name="dipole">      0.00000000       0.00000000      -0.24629408 </v>
    <i name="Tr[quadrupol]">  -1865.89696156 </i>
    <i name="Echarged">      0.00000000 </i>
    <i name="Edipol_quadrupol">      0.00000000 </i>
    <i name="Eion">      0.00000000 </i>
   </dipole>
   <energy>
    <i name="e_fr_energy">    -69.41548252 </i>
    <i name="e_wo_entrp">    -69.41548252 </i>
    <i name="e_0_energy">    -69.41548252 </i>
   </energy>
  </scstep>
  <scstep>
   <time name="diag">    0.47    0.47</time>
   <time name="diis">    2.50    2.50</time>
   <time name="orth">    0.07    0.07</time>
   <time name="total">    8.24    8.27</time>
   <dipole>
    <v name="dipole">      0.00000000       0.00000000      -0.46568399 </v>
    <i name="Tr[quadrupol]">  -1864.83614605 </i>
    <i name="Echarged">      0.00000000 </i>
    <i name="Edipol_quadrupol">      0.00000000 </i>
    <i name="Eion">      0.00000000 </i>
   </dipole>
   <energy>
    <i name="e_fr_energy">    -69.26329447 </i>
    <i name="e_wo_entrp">    -69.26329447 </i>
    <i name="e_0_energy">    -69.26329447 </i>
   </energy>
  </scstep>
  <scstep>
   <time name="diag">    0.47    0.47</time>
   <time name="diis">    2.99    2.99</time>
   <time name="orth">    0.07    0.07</time>
   <time name="total">    8.74    8.76</time>
   <dipole>
    <v name="dipole">      0.00000000       0.00000000      -0.51668101 </v>
    <i name="Tr[quadrupol]">  -1865.76015527 </i>
    <i name="Echarged">      0.00000000 </i>
    <i name="Edipol_quadrupol">      0.00000000 </i>
    <i name="Eion">      0.00000000 </i>
   </dipole>
   <energy>
    <i name="e_fr_energy">    -69.24299699 </i>
    <i name="e_wo_entrp">    -69.24299699 </i>
    <i name="e_0_energy">    -69.24299699 </i>
   </energy>
  </scstep>
  <scstep>
   <time name="diag">    0.48    0.48</time>
   <time name="diis">    2.56    2.56</time>
   <time name="orth">    0.07    0.07</time>
   <time name="total">    8.40    8.43</time>
   <dipole>
    <v name="dipole">      0.00000000       0.00000000      -0.56063055 </v>
    <i name="Tr[quadrupol]">  -1867.01647748 </i>
    <i name="Echarged">      0.00000000 </i>
    <i name="Edipol_quadrupol">      0.00000000 </i>
    <i name="Eion">      0.00000000 </i>
   </dipole>
   <energy>
    <i name="e_fr_energy">    -69.23272573 </i>
    <i name="e_wo_entrp">    -69.23272573 </i>
    <i name="e_0_energy">    -69.23272573 </i>
   </energy>
  </scstep>
  <scstep>
   <time name="diag">    0.48    0.48</time>
   <time name="diis">    2.87    2.87</time>
   <time name="orth">    0.07    0.07</time>
   <time name="total">    8.62    8.65</time>
   <dipole>
    <v name="dipole">      0.00000000       0.00000000      -0.55576495 </v>
    <i name="Tr[quadrupol]">  -1867.56007656 </i>
    <i name="Echarged">      0.00000000 </i>
    <i name="Edipol_quadrupol">      0.00000000 </i>
    <i name="Eion">      0.00000000 </i>
   </dipole>
   <energy>
    <i name="e_fr_energy">    -69.24226837 </i>
    <i name="e_wo_entrp">    -69.24226837 </i>
    <i name="e_0_energy">    -69.24226837 </i>
   </energy>
  </scstep>
  <scstep>
   <time name="diag">    0.48    0.48</time>
   <time name="diis">    2.76    2.76</time>
   <time name="orth">    0.07    0.07</time>
   <time name="total">    8.50    8.53</time>
   <dipole>
    <v name="dipole">      0.00000000       0.00000000      -0.55837313 </v>
    <i name="Tr[quadrupol]">  -1867.96001252 </i>
    <i name="Echarged">      0.00000000 </i>
    <i name="Edipol_quadrupol">      0.00000000 </i>
    <i name="Eion">      0.00000000 </i>
   </dipole>
   <energy>
    <i name="e_fr_energy">    -69.24191304 </i>
    <i name="e_wo_entrp">    -69.24191304 </i>
    <i name="e_0_energy">    -69.24191304 </i>
   </energy>
  </scstep>
  <scstep>
   <time name="diag">    0.48    0.48</time>
   <time name="diis">    2.51    2.51</time>
   <time name="orth">    0.07    0.07</time>
   <time name="total">    8.24    8.27</time>
   <dipole>
    <v name="dipole">      0.00000000       0.00000000      -0.55010232 </v>
    <i name="Tr[quadrupol]">  -1868.41427779 </i>
    <i name="Echarged">      0.00000000 </i>
    <i name="Edipol_quadrupol">      0.00000000 </i>
    <i name="Eion">      0.00000000 </i>
   </dipole>
   <energy>
    <i name="e_fr_energy">    -69.23717898 </i>
    <i name="e_wo_entrp">    -69.23717898 </i>
    <i name="e_0_energy">    -69.23717898 </i>
   </energy>
  </scstep>
  <scstep>
   <time name="diag">    0.47    0.47</time>
   <time name="diis">    2.47    2.47</time>
   <time name="orth">    0.07    0.07</time>
   <time name="total">    8.23    8.25</time>
   <dipole>
    <v name="dipole">      0.00000000       0.00000000      -0.54262481 </v>
    <i name="Tr[quadrupol]">  -1868.61093471 </i>
    <i name="Echarged">      0.00000000 </i>
    <i name="Edipol_quadrupol">      0.00000000 </i>
    <i name="Eion">      0.00000000 </i>
   </dipole>
   <energy>
    <i name="e_fr_energy">    -69.23294167 </i>
    <i name="e_wo_entrp">    -69.23294167 </i>
    <i name="e_0_energy">    -69.23294167 </i>
   </energy>
  </scstep>
  <scstep>
   <time name="diag">    0.48    0.48</time>
   <time name="diis">    2.16    2.17</time>
   <time name="orth">    0.07    0.07</time>
   <time name="total">    7.92    7.94</time>
   <dipole>
    <v name="dipole">      0.00000000       0.00000000      -0.52960229 </v>
    <i name="Tr[quadrupol]">  -1868.81735987 </i>
    <i name="Echarged">      0.00000000 </i>
    <i name="Edipol_quadrupol">      0.00000000 </i>
    <i name="Eion">      0.00000000 </i>
   </dipole>
   <energy>
    <i name="e_fr_energy">    -69.23201449 </i>
    <i name="e_wo_entrp">    -69.23201449 </i>
    <i name="e_0_energy">    -69.23201449 </i>
   </energy>
  </scstep>
  <scstep>
   <time name="diag">    0.48    0.48</time>
   <time name="diis">    2.08    2.08</time>
   <time name="orth">    0.07    0.07</time>
   <time name="total">    7.84    7.86</time>
   <dipole>
    <v name="dipole">      0.00000000       0.00000000      -0.52139458 </v>
    <i name="Tr[quadrupol]">  -1868.91511132 </i>
    <i name="Echarged">      0.00000000 </i>
    <i name="Edipol_quadrupol">      0.00000000 </i>
    <i name="Eion">      0.00000000 </i>
   </dipole>
   <energy>
    <i name="e_fr_energy">    -69.23263116 </i>
    <i name="e_wo_entrp">    -69.23263116 </i>
    <i name="e_0_energy">    -69.23263116 </i>
   </energy>
  </scstep>
  <scstep>
   <time name="diag">    0.48    0.48</time>
   <time name="diis">    1.86    1.86</time>
   <time name="orth">    0.07    0.07</time>
   <time name="total">    7.89    7.92</time>
   <dipole>
    <v name="dipole">      0.00000000       0.00000000      -0.51559376 </v>
    <i name="Tr[quadrupol]">  -1868.98814262 </i>
    <i name="Echarged">      0.00000000 </i>
    <i name="Edipol_quadrupol">      0.00000000 </i>
    <i name="Eion">      0.00000000 </i>
   </dipole>
   <energy>
    <i name="e_fr_energy">    -69.23261945 </i>
    <i name="e_wo_entrp">    -69.23261945 </i>
    <i name="e_0_energy">    -69.23261945 </i>
   </energy>
  </scstep>
  <scstep>
   <time name="diag">    0.48    0.48</time>
   <time name="diis">    1.95    1.96</time>
   <time name="orth">    0.07    0.07</time>
   <time name="total">    7.73    7.75</time>
   <dipole>
    <v name="dipole">      0.00000000       0.00000000      -0.51143215 </v>
    <i name="Tr[quadrupol]">  -1868.98295006 </i>
    <i name="Echarged">      0.00000000 </i>
    <i name="Edipol_quadrupol">      0.00000000 </i>
    <i name="Eion">      0.00000000 </i>
   </dipole>
   <energy>
    <i name="e_fr_energy">    -69.23242822 </i>
    <i name="e_wo_entrp">    -69.23242822 </i>
    <i name="e_0_energy">    -69.23242822 </i>
   </energy>
  </scstep>
  <scstep>
   <time name="diag">    0.48    0.48</time>
   <time name="diis">    1.70    1.70</time>
   <time name="orth">    0.07    0.07</time>
   <time name="total">    7.44    7.47</time>
   <dipole>
    <v name="dipole">      0.00000000       0.00000000      -0.50967883 </v>
    <i name="Tr[quadrupol]">  -1868.97943566 </i>
    <i name="Echarged">      0.00000000 </i>
    <i name="Edipol_quadrupol">      0.00000000 </i>
    <i name="Eion">      0.00000000 </i>
   </dipole>
   <energy>
    <i name="e_fr_energy">    -69.23241498 </i>
    <i name="e_wo_entrp">    -69.23241498 </i>
    <i name="e_0_energy">    -69.23241498 </i>
   </energy>
  </scstep>
  <scstep>
   <time name="diag">    0.47    0.47</time>
   <time name="diis">    1.69    1.69</time>
   <time name="orth">    0.07    0.07</time>
   <time name="total">    7.45    7.47</time>
   <dipole>
    <v name="dipole">      0.00000000       0.00000000      -0.50884505 </v>
    <i name="Tr[quadrupol]">  -1868.90990280 </i>
    <i name="Echarged">      0.00000000 </i>
    <i name="Edipol_quadrupol">      0.00000000 </i>
    <i name="Eion">      0.00000000 </i>
   </dipole>
   <energy>
    <i name="e_fr_energy">    -69.23244567 </i>
    <i name="e_wo_entrp">    -69.23244567 </i>
    <i name="e_0_energy">    -69.23244567 </i>
   </energy>
  </scstep>
  <scstep>
   <time name="diag">    0.48    0.48</time>
   <time name="diis">    1.71    1.71</time>
   <time name="orth">    0.07    0.07</time>
   <time name="total">    7.47    7.49</time>
   <dipole>
    <v name="dipole">      0.00000000       0.00000000      -0.50917001 </v>
    <i name="Tr[quadrupol]">  -1868.70950056 </i>
    <i name="Echarged">      0.00000000 </i>
    <i name="Edipol_quadrupol">      0.00000000 </i>
    <i name="Eion">      0.00000000 </i>
   </dipole>
   <energy>
    <i name="e_fr_energy">    -69.23246361 </i>
    <i name="e_wo_entrp">    -69.23246361 </i>
    <i name="e_0_energy">    -69.23246361 </i>
   </energy>
  </scstep>
  <scstep>
   <time name="diag">    0.47    0.47</time>
   <time name="diis">    1.63    1.63</time>
   <time name="orth">    0.07    0.07</time>
   <time name="total">    7.38    7.41</time>
   <dipole>
    <v name="dipole">      0.00000000       0.00000000      -0.50909105 </v>
    <i name="Tr[quadrupol]">  -1869.43972927 </i>
    <i name="Echarged">      0.00000000 </i>
    <i name="Edipol_quadrupol">      0.00000000 </i>
    <i name="Eion">      0.00000000 </i>
   </dipole>
   <energy>
    <i name="e_fr_energy">    -69.23244553 </i>
    <i name="e_wo_entrp">    -69.23244553 </i>
    <i name="e_0_energy">    -69.23244553 </i>
   </energy>
  </scstep>
  <scstep>
   <time name="diag">    0.48    0.48</time>
   <time name="diis">    1.66    1.66</time>
   <time name="orth">    0.07    0.07</time>
   <time name="total">    7.40    7.43</time>
   <dipole>
    <v name="dipole">      0.00000000       0.00000000      -0.50947353 </v>
    <i name="Tr[quadrupol]">  -1869.57127387 </i>
    <i name="Echarged">      0.00000000 </i>
    <i name="Edipol_quadrupol">      0.00000000 </i>
    <i name="Eion">      0.00000000 </i>
   </dipole>
   <energy>
    <i name="e_fr_energy">    -69.23249118 </i>
    <i name="e_wo_entrp">    -69.23249118 </i>
    <i name="e_0_energy">    -69.23249118 </i>
   </energy>
  </scstep>
  <scstep>
   <time name="diag">    0.48    0.48</time>
   <time name="diis">    1.59    1.59</time>
   <time name="orth">    0.07    0.07</time>
   <time name="total">    7.35    7.38</time>
   <dipole>
    <v name="dipole">      0.00000000       0.00000000      -0.50967856 </v>
    <i name="Tr[quadrupol]">  -1869.57194657 </i>
    <i name="Echarged">      0.00000000 </i>
    <i name="Edipol_quadrupol">      0.00000000 </i>
    <i name="Eion">      0.00000000 </i>
   </dipole>
   <energy>
    <i name="e_fr_energy">    -69.23251332 </i>
    <i name="e_wo_entrp">    -69.23251332 </i>
    <i name="e_0_energy">    -69.23251332 </i>
   </energy>
  </scstep>
  <scstep>
   <time name="diag">    0.47    0.48</time>
   <time name="diis">    2.10    2.10</time>
   <time name="orth">    0.07    0.07</time>
   <time name="total">    7.84    7.87</time>
   <dipole>
    <v name="dipole">      0.00000000       0.00000000      -0.51002657 </v>
    <i name="Tr[quadrupol]">  -1869.63897321 </i>
    <i name="Echarged">      0.00000000 </i>
    <i name="Edipol_quadrupol">      0.00000000 </i>
    <i name="Eion">      0.00000000 </i>
   </dipole>
   <energy>
    <i name="e_fr_energy">    -69.80722021 </i>
    <i name="e_wo_entrp">    -69.80722021 </i>
    <i name="e_0_energy">    -69.80722021 </i>
   </energy>
  </scstep>
  <scstep>
   <time name="diag">    0.48    0.49</time>
   <time name="diis">    1.50    1.50</time>
   <time name="orth">    0.07    0.07</time>
   <time name="total">    7.27    7.30</time>
   <dipole>
    <v name="dipole">      0.00000000       0.00000000      -0.50983799 </v>
    <i name="Tr[quadrupol]">  -1870.49883627 </i>
    <i name="Echarged">      0.00000000 </i>
    <i name="Edipol_quadrupol">      0.00000000 </i>
    <i name="Eion">      0.00000000 </i>
   </dipole>
   <energy>
    <i name="e_fr_energy">    -69.23220149 </i>
    <i name="e_wo_entrp">    -69.23220149 </i>
    <i name="e_0_energy">    -69.23220149 </i>
   </energy>
  </scstep>
  <scstep>
   <time name="diag">    0.48    0.48</time>
   <time name="diis">    1.63    1.63</time>
   <time name="orth">    0.07    0.07</time>
   <time name="total">    7.46    7.49</time>
   <dipole>
    <v name="dipole">      0.00000000       0.00000000      -0.50997173 </v>
    <i name="Tr[quadrupol]">  -1869.50394830 </i>
    <i name="Echarged">      0.00000000 </i>
    <i name="Edipol_quadrupol">      0.00000000 </i>
    <i name="Eion">      0.00000000 </i>
   </dipole>
   <energy>
    <i name="e_fr_energy">    -69.23238434 </i>
    <i name="e_wo_entrp">    -69.23238434 </i>
    <i name="e_0_energy">    -69.23238434 </i>
   </energy>
  </scstep>
  <scstep>
   <time name="diag">    0.48    0.48</time>
   <time name="diis">    1.74    1.74</time>
   <time name="orth">    0.07    0.07</time>
   <time name="total">    7.49    7.52</time>
   <dipole>
    <v name="dipole">      0.00000000       0.00000000      -0.51014827 </v>
    <i name="Tr[quadrupol]">  -1869.03838231 </i>
    <i name="Echarged">      0.00000000 </i>
    <i name="Edipol_quadrupol">      0.00000000 </i>
    <i name="Eion">      0.00000000 </i>
   </dipole>
   <energy>
    <i name="e_fr_energy">    -69.23247387 </i>
    <i name="e_wo_entrp">    -69.23247387 </i>
    <i name="e_0_energy">    -69.23247387 </i>
   </energy>
  </scstep>
  <scstep>
   <time name="diag">    0.48    0.48</time>
   <time name="diis">    1.76    1.77</time>
   <time name="orth">    0.07    0.07</time>
   <time name="total">    7.83    7.86</time>
   <dipole>
    <v name="dipole">      0.00000000       0.00000000      -0.51021679 </v>
    <i name="Tr[quadrupol]">  -1868.83873537 </i>
    <i name="Echarged">      0.00000000 </i>
    <i name="Edipol_quadrupol">      0.00000000 </i>
    <i name="Eion">      0.00000000 </i>
   </dipole>
   <energy>
    <i name="e_fr_energy">    -69.23251243 </i>
    <i name="e_wo_entrp">    -69.23251243 </i>
    <i name="e_0_energy">    -69.23251243 </i>
   </energy>
  </scstep>
  <scstep>
   <time name="diag">    0.47    0.47</time>
   <time name="diis">    1.89    1.89</time>
   <time name="orth">    0.07    0.07</time>
   <time name="total">    7.64    7.67</time>
   <dipole>
    <v name="dipole">      0.00000000       0.00000000      -0.51022785 </v>
    <i name="Tr[quadrupol]">  -1868.77224273 </i>
    <i name="Echarged">      0.00000000 </i>
    <i name="Edipol_quadrupol">      0.00000000 </i>
    <i name="Eion">      0.00000000 </i>
   </dipole>
   <energy>
    <i name="e_fr_energy">    -69.23253985 </i>
    <i name="e_wo_entrp">    -69.23253985 </i>
    <i name="e_0_energy">    -69.23253985 </i>
   </energy>
  </scstep>
  <scstep>
   <time name="diag">    0.48    0.48</time>
   <time name="diis">    1.87    1.87</time>
   <time name="orth">    0.07    0.07</time>
   <time name="total">    7.63    7.65</time>
   <dipole>
    <v name="dipole">      0.00000000       0.00000000      -0.51027172 </v>
    <i name="Tr[quadrupol]">  -1868.83865979 </i>
    <i name="Echarged">      0.00000000 </i>
    <i name="Edipol_quadrupol">      0.00000000 </i>
    <i name="Eion">      0.00000000 </i>
   </dipole>
   <energy>
    <i name="e_fr_energy">    -69.23255307 </i>
    <i name="e_wo_entrp">    -69.23255307 </i>
    <i name="e_0_energy">    -69.23255307 </i>
   </energy>
  </scstep>
  <scstep>
   <time name="diag">    0.48    0.48</time>
   <time name="diis">    1.74    1.74</time>
   <time name="orth">    0.07    0.07</time>
   <time name="total">    7.37    7.39</time>
   <dipole>
    <v name="dipole">      0.00000000       0.00000000      -0.51030070 </v>
    <i name="Tr[quadrupol]">  -1868.90507854 </i>
    <i name="Echarged">      0.00000000 </i>
    <i name="Edipol_quadrupol">      0.00000000 </i>
    <i name="Eion">      0.00000000 </i>
   </dipole>
   <energy>
    <i name="alphaZ">     61.74205525 </i>
    <i name="ewald">  13092.30961028 </i>
    <i name="hartreedc"> -16558.95713253 </i>
    <i name="XCdc">  -2034.64521004 </i>
    <i name="pawpsdc">   5963.39427642 </i>
    <i name="pawaedc">  -3549.61605331 </i>
    <i name="eentropy">      0.00000000 </i>
    <i name="bandstr">   -871.44824810 </i>
    <i name="atom">   3827.98814510 </i>
    <i name="e_fr_energy">    -69.23255692 </i>
    <i name="e_wo_entrp">    -69.23255692 </i>
    <i name="e_0_energy">    -69.23255692 </i>
   </energy>
  </scstep>
  <structure>
   <crystal>
    <varray name="basis" >
     <v>       9.55575275       0.00000000       0.00000000 </v>
     <v>      -4.77787638       8.27552464       0.00000000 </v>
     <v>       0.00000000       0.00000000      32.62509537 </v>
    </varray>
    <i name="volume">   2579.95558872 </i>
    <varray name="rec_basis" >
     <v>       0.10464900       0.06041913       0.00000000 </v>
     <v>       0.00000000       0.12083826       0.00000000 </v>
     <v>       0.00000000       0.00000000       0.03065125 </v>
    </varray>
   </crystal>
   <varray name="positions" >
    <v>       0.00000000       0.00000000       0.00000000 </v>
    <v>       0.99936632       0.00177762       0.15829218 </v>
    <v>       0.00231510       0.01408479       0.33005254 </v>
    <v>       0.00000001       0.33333336       0.00000000 </v>
    <v>       0.00021789       0.33590117       0.15777477 </v>
    <v>       0.99157885       0.34177957       0.31249418 </v>
    <v>       0.00000002       0.66666672       0.00000000 </v>
    <v>       0.00057025       0.66968798       0.15784315 </v>
    <v>       0.99900166       0.67799725       0.31516272 </v>
    <v>       0.33333334       0.00000000       0.00000000 </v>
    <v>       0.33390537       0.00174055       0.15733659 </v>
    <v>       0.33153863       0.01280174       0.30959777 </v>
    <v>       0.33333335       0.33333336       0.00000000 </v>
    <v>       0.33152061       0.33322840       0.15713111 </v>
    <v>       0.32020900       0.33424916       0.31239521 </v>
    <v>       0.33333336       0.66666672       0.00000000 </v>
    <v>       0.33301507       0.67022356       0.15791535 </v>
    <v>       0.32210066       0.68192132       0.33017190 </v>
    <v>       0.66666668       0.00000000       0.00000000 </v>
    <v>       0.66558260       0.00043520       0.15790840 </v>
    <v>       0.67020580       0.01330986       0.31441480 </v>
    <v>       0.66666668       0.33333336       0.00000000 </v>
    <v>       0.66671668       0.33626383       0.15854859 </v>
    <v>       0.65942349       0.33383146       0.33307916 </v>
    <v>       0.66666670       0.66666672       0.00000000 </v>
    <v>       0.66936494       0.66951718       0.15758571 </v>
    <v>       0.65839877       0.68168826       0.31637817 </v>
    <v>       0.11111113       0.22222222       0.07982145 </v>
    <v>       0.10659967       0.22359099       0.23655608 </v>
    <v>       0.11111114       0.55555561       0.07982145 </v>
    <v>       0.11565686       0.56206543       0.23721465 </v>
    <v>       0.11111116       0.88888894       0.07982145 </v>
    <v>       0.10863820       0.89398445       0.23579137 </v>
    <v>       0.44444450       0.22222222       0.07982145 </v>
    <v>       0.44882134       0.23374167       0.23634825 </v>
    <v>       0.44444450       0.55555561       0.07982145 </v>
    <v>       0.44671676       0.55974904       0.23364198 </v>
    <v>       0.44444451       0.88888894       0.07982145 </v>
    <v>       0.44348291       0.88745109       0.23750416 </v>
    <v>       0.77777779       0.22222222       0.07982145 </v>
    <v>       0.77440907       0.22626230       0.23580725 </v>
    <v>       0.77777781       0.55555561       0.07982145 </v>
    <v>       0.77708882       0.55770594       0.23758894 </v>
    <v>       0.77777784       0.88888894       0.07982145 </v>
    <v>       0.77993553       0.89122783       0.23880946 </v>
    <v>       0.00010437       0.99963085       0.39638733 </v>
    <v>       0.29073812       0.96368797       0.41287388 </v>
    <v>       0.87949259       0.22271156       0.41588534 </v>
    <v>       0.60916704       0.27136690       0.40025499 </v>
    <v>       0.74641600       0.57028289       0.35264413 </v>
    <v>       0.35053101       0.70764936       0.39572093 </v>
    <v>       0.96769346       0.06967879       0.41085925 </v>
    <v>       0.09457733       0.00614079       0.41037269 </v>
    <v>       0.39260801       0.06796982       0.41082024 </v>
    <v>       0.25383560       0.93918310       0.38373256 </v>
    <v>       0.97890810       0.32786270       0.41820842 </v>
    <v>       0.86475944       0.20760902       0.38531072 </v>
    <v>       0.61784813       0.37303399       0.40942073 </v>
    <v>       0.69923974       0.26341834       0.41318536 </v>
    <v>       0.78782864       0.62050707       0.37944187 </v>
    <v>       0.43215723       0.55598221       0.33289333 </v>
    <v>       0.34071779       0.79909875       0.40711777 </v>
    <v>       0.45415013       0.72224793       0.40516334 </v>
   </varray>
  </structure>
  <varray name="forces" >
   <v>       0.01206368      -0.01245146       0.00411840 </v>
   <v>       0.01740094       0.00677644       0.01076328 </v>
   <v>      -0.01237598       0.02387347      -0.01519898 </v>
   <v>      -0.03543905      -0.01030218      -0.02816281 </v>
   <v>      -0.00118852       0.00549502      -0.00528263 </v>
   <v>       0.00847454      -0.01344954       0.02237326 </v>
   <v>       0.02471836       0.02733193      -0.02759920 </v>
   <v>       0.00179293       0.01326413       0.00216800 </v>
   <v>      -0.09461544      -0.04381582       0.07324429 </v>
   <v>      -0.01552683      -0.00804536      -0.01584858 </v>
   <v>      -0.01702398      -0.00648115       0.00280794 </v>
   <v>      -0.03959095      -0.02542579       0.00066953 </v>
   <v>       0.00269299      -0.00925351      -0.01703573 </v>
   <v>       0.00486574      -0.01424070      -0.01491216 </v>
   <v>       0.02724375       0.01104460       0.00742666 </v>
   <v>      -0.02233723      -0.00622442      -0.01456141 </v>
   <v>      -0.01187871       0.01377641       0.00391155 </v>
   <v>      -0.02531503      -0.02376713      -0.01267920 </v>
   <v>       0.00401450       0.05018992      -0.01372296 </v>
   <v>      -0.00697301      -0.00464768      -0.00370899 </v>
   <v>       0.00545345      -0.00107936       0.01632206 </v>
   <v>       0.03504464      -0.04138666      -0.01839619 </v>
   <v>      -0.00248678       0.00801756      -0.00639340 </v>
   <v>      -0.00490756      -0.07064107      -0.00619126 </v>
   <v>      -0.00809251       0.01594883      -0.04661766 </v>
   <v>      -0.00047864      -0.00369003      -0.02088198 </v>
   <v>      -0.03456040       0.02985162      -0.05370370 </v>
   <v>       0.00451577      -0.00143027       0.02779992 </v>
   <v>       0.00758061      -0.00797505       0.00557495 </v>
   <v>       0.00669026       0.01785656       0.03329194 </v>
   <v>      -0.01220954       0.02635599       0.03150198 </v>
   <v>      -0.01367066       0.00428635      -0.01469301 </v>
   <v>      -0.00679043      -0.00926815       0.04115317 </v>
   <v>      -0.00496420       0.02102671       0.04011450 </v>
   <v>      -0.00861052      -0.00789025       0.00398557 </v>
   <v>       0.00058773       0.00530586       0.01803202 </v>
   <v>      -0.02250089       0.01086903      -0.00065732 </v>
   <v>      -0.00643477      -0.01315783       0.02774581 </v>
   <v>      -0.00651364      -0.01301658       0.00722055 </v>
   <v>      -0.01206510       0.01825426       0.00613757 </v>
   <v>      -0.00363432       0.00926927       0.01089231 </v>
   <v>      -0.00294698       0.00438640       0.07550054 </v>
   <v>       0.00433046      -0.00450538      -0.04733943 </v>
   <v>       0.00594296      -0.00079489       0.03668480 </v>
   <v>      -0.00485849       0.02337504      -0.01071560 </v>
   <v>      -0.00784744      -0.00935530       0.00923589 </v>
   <v>      -0.01354376      -0.00986889       0.03748187 </v>
   <v>      -0.03241887       0.00672911       0.03472515 </v>
   <v>       0.03619320      -0.00930284       0.00119467 </v>
   <v>       0.31531703       0.10321955      -0.31157846 </v>
   <v>      -0.02550449      -0.01060989       0.01517363 </v>
   <v>      -0.00926983      -0.00737233      -0.00093450 </v>
   <v>       0.00232216      -0.00091297      -0.01130394 </v>
   <v>      -0.00136584      -0.01485363      -0.00564747 </v>
   <v>      -0.02222553      -0.01256785      -0.01383372 </v>
   <v>      -0.02056935       0.01083896      -0.01158858 </v>
   <v>       0.00528307      -0.00123584      -0.03228269 </v>
   <v>      -0.00328164      -0.03357074       0.14852508 </v>
   <v>       0.04844427      -0.01882993      -0.02930874 </v>
   <v>       0.00027099      -0.01741335       0.02775704 </v>
   <v>       0.02334540       0.00015586       0.05273427 </v>
   <v>      -0.03021733      -0.00563114      -0.00495020 </v>
   <v>      -0.00035519       0.03696609      -0.02053769 </v>
  </varray>
  <varray name="stress" >
   <v>      -5.61537786       0.14016459       0.37053796 </v>
   <v>       0.14016449      -4.69263990      -0.50102333 </v>
   <v>       0.37053777      -0.50102355      -0.19639284 </v>
  </varray>
  <energy>
   <i name="e_fr_energy">    -69.23255692 </i>
   <i name="e_wo_entrp">    -69.23255692 </i>
   <i name="e_0_energy">      0.00000000 </i>
  </energy>
  <time name="totalsc">  283.97  286.26</time>
  <eigenvalues>
   <array>
    <dimension dim="1">band</dimension>
    <dimension dim="2">kpoint</dimension>
    <dimension dim="3">spin</dimension>
    <field>eigene</field>
    <field>occ</field>
    <set>
     <set comment="spin 1">
      <set comment="kpoint 1">
       <r>  -24.2034    1.0000 </r>
       <r>  -23.8077    1.0000 </r>
       <r>  -23.7013    1.0000 </r>
       <r>  -23.4635    1.0000 </r>
       <r>  -23.2091    1.0000 </r>
       <r>  -21.8373    1.0000 </r>
       <r>  -12.1542    1.0000 </r>
       <r>  -11.8154    1.0000 </r>
       <r>  -11.7680    1.0000 </r>
       <r>  -11.1828    1.0000 </r>
       <r>  -10.9393    1.0000 </r>
       <r>   -9.6576    1.0000 </r>
       <r>   -8.8100    1.0000 </r>
       <r>   -8.6570    1.0000 </r>
       <r>   -8.5729    1.0000 </r>
       <r>   -8.0229    1.0000 </r>
       <r>   -7.7085    1.0000 </r>
       <r>   -7.3054    1.0000 </r>
       <r>   -7.1330    1.0000 </r>
       <r>   -6.9193    1.0000 </r>
       <r>   -6.5436    1.0000 </r>
       <r>   -6.3717    1.0000 </r>
       <r>   -6.3130    1.0000 </r>
       <r>   -6.0524    1.0000 </r>
       <r>   -5.9719    1.0000 </r>
       <r>   -5.9531    1.0000 </r>
       <r>   -5.7587    1.0000 </r>
       <r>   -5.4308    1.0000 </r>
       <r>   -5.1240    1.0000 </r>
       <r>   -5.1173    1.0000 </r>
       <r>   -5.1001    1.0000 </r>
       <r>   -5.0837    1.0000 </r>
       <r>   -5.0746    1.0000 </r>
       <r>   -5.0428    1.0000 </r>
       <r>   -4.6004    1.0000 </r>
       <r>   -4.5934    1.0000 </r>
       <r>   -4.5648    1.0000 </r>
       <r>   -4.5155    1.0000 </r>
       <r>   -4.4466    1.0000 </r>
       <r>   -4.3900    1.0000 </r>
       <r>   -4.1924    1.0000 </r>
       <r>   -3.7294    1.0000 </r>
       <r>   -3.6888    1.0000 </r>
       <r>   -3.6433    1.0000 </r>
       <r>   -3.5437    1.0000 </r>
       <r>   -3.4233    1.0000 </r>
       <r>   -3.2387    1.0000 </r>
       <r>   -2.9368    1.0000 </r>
       <r>   -2.5851    1.0000 </r>
       <r>   -2.5278    1.0000 </r>
       <r>   -2.4952    1.0000 </r>
       <r>   -2.4231    1.0000 </r>
       <r>   -2.1723    1.0000 </r>
       <r>   -1.8247    1.0000 </r>
       <r>   -1.5461    1.0000 </r>
       <r>   -1.1840    1.0000 </r>
       <r>   -1.0754    1.0000 </r>
       <r>   -1.0254    1.0000 </r>
       <r>   -0.9936    1.0000 </r>
       <r>   -0.9644    1.0000 </r>
       <r>   -0.9471    1.0000 </r>
       <r>   -0.9403    1.0000 </r>
       <r>   -0.9125    1.0000 </r>
       <r>   -0.8979    1.0000 </r>
       <r>   -0.8774    1.0000 </r>
       <r>   -0.7631    1.0000 </r>
       <r>   -0.6259    1.0000 </r>
       <r>   -0.5856    1.0000 </r>
       <r>   -0.5233    0.7933 </r>
       <r>   -0.3714    0.0000 </r>
       <r>   -0.3535    0.0000 </r>
       <r>   -0.2374    0.0000 </r>
       <r>   -0.1623    0.0000 </r>
       <r>   -0.1415    0.0000 </r>
       <r>   -0.0923    0.0000 </r>
       <r>    0.1561    0.0000 </r>
       <r>    0.2073    0.0000 </r>
       <r>    0.2299    0.0000 </r>
       <r>    0.3132    0.0000 </r>
       <r>    0.4024    0.0000 </r>
       <r>    0.4421    0.0000 </r>
       <r>    0.4555    0.0000 </r>
       <r>    0.5767    0.0000 </r>
       <r>    0.6326    0.0000 </r>
       <r>    0.9294    0.0000 </r>
       <r>    1.1194    0.0000 </r>
       <r>    1.1353    0.0000 </r>
       <r>    1.1413    0.0000 </r>
       <r>    1.1607    0.0000 </r>
       <r>    1.1670    0.0000 </r>
       <r>    1.1915    0.0000 </r>
       <r>    1.2271    0.0000 </r>
       <r>    1.3082    0.0000 </r>
       <r>    1.3637    0.0000 </r>
       <r>    1.4897    0.0000 </r>
       <r>    1.5306    0.0000 </r>
       <r>    1.6594    0.0000 </r>
       <r>    1.6989    0.0000 </r>
       <r>    1.7177    0.0000 </r>
       <r>    1.7553    0.0000 </r>
       <r>    1.7958    0.0000 </r>
       <r>    1.9620    0.0000 </r>
      </set>
      <set comment="kpoint 2">
       <r>  -24.2026    1.0000 </r>
       <r>  -23.8094    1.0000 </r>
       <r>  -23.7044    1.0000 </r>
       <r>  -23.4566    1.0000 </r>
       <r>  -23.2122    1.0000 </r>
       <r>  -21.8374    1.0000 </r>
       <r>  -12.1548    1.0000 </r>
       <r>  -11.8116    1.0000 </r>
       <r>  -11.7715    1.0000 </r>
       <r>  -11.1734    1.0000 </r>
       <r>  -10.9495    1.0000 </r>
       <r>   -9.6574    1.0000 </r>
       <r>   -8.8052    1.0000 </r>
       <r>   -8.6626    1.0000 </r>
       <r>   -8.5737    1.0000 </r>
       <r>   -8.0089    1.0000 </r>
       <r>   -7.7187    1.0000 </r>
       <r>   -7.1429    1.0000 </r>
       <r>   -7.0886    1.0000 </r>
       <r>   -6.8543    1.0000 </r>
       <r>   -6.4457    1.0000 </r>
       <r>   -6.3687    1.0000 </r>
       <r>   -6.2896    1.0000 </r>
       <r>   -6.2568    1.0000 </r>
       <r>   -6.0520    1.0000 </r>
       <r>   -5.9646    1.0000 </r>
       <r>   -5.8710    1.0000 </r>
       <r>   -5.7580    1.0000 </r>
       <r>   -5.6482    1.0000 </r>
       <r>   -5.5702    1.0000 </r>
       <r>   -5.5521    1.0000 </r>
       <r>   -5.2944    1.0000 </r>
       <r>   -4.9773    1.0000 </r>
       <r>   -4.9080    1.0000 </r>
       <r>   -4.6623    1.0000 </r>
       <r>   -4.2953    1.0000 </r>
       <r>   -4.1561    1.0000 </r>
       <r>   -4.1414    1.0000 </r>
       <r>   -4.0630    1.0000 </r>
       <r>   -3.8778    1.0000 </r>
       <r>   -3.6018    1.0000 </r>
       <r>   -3.5493    1.0000 </r>
       <r>   -3.4521    1.0000 </r>
       <r>   -3.3718    1.0000 </r>
       <r>   -2.9524    1.0000 </r>
       <r>   -2.9267    1.0000 </r>
       <r>   -2.8546    1.0000 </r>
       <r>   -2.7812    1.0000 </r>
       <r>   -2.7416    1.0000 </r>
       <r>   -2.7324    1.0000 </r>
       <r>   -2.6170    1.0000 </r>
       <r>   -2.3621    1.0000 </r>
       <r>   -2.2163    1.0000 </r>
       <r>   -2.1459    1.0000 </r>
       <r>   -2.0512    1.0000 </r>
       <r>   -1.8851    1.0000 </r>
       <r>   -1.5899    1.0000 </r>
       <r>   -1.5424    1.0000 </r>
       <r>   -1.4919    1.0000 </r>
       <r>   -1.4227    1.0000 </r>
       <r>   -1.3832    1.0000 </r>
       <r>   -1.3567    1.0000 </r>
       <r>   -1.2886    1.0000 </r>
       <r>   -1.0528    1.0000 </r>
       <r>   -0.8683    1.0000 </r>
       <r>   -0.7458    1.0000 </r>
       <r>   -0.7076    1.0000 </r>
       <r>   -0.6450    1.0000 </r>
       <r>   -0.5144    0.6107 </r>
       <r>   -0.4541    0.0302 </r>
       <r>   -0.3919   -0.0279 </r>
       <r>   -0.2726    0.0000 </r>
       <r>   -0.1195    0.0000 </r>
       <r>    0.0102    0.0000 </r>
       <r>    0.0633    0.0000 </r>
       <r>    0.0805    0.0000 </r>
       <r>    0.1041    0.0000 </r>
       <r>    0.1887    0.0000 </r>
       <r>    0.2302    0.0000 </r>
       <r>    0.3382    0.0000 </r>
       <r>    0.3965    0.0000 </r>
       <r>    0.5334    0.0000 </r>
       <r>    0.6293    0.0000 </r>
       <r>    0.6695    0.0000 </r>
       <r>    0.7081    0.0000 </r>
       <r>    0.7706    0.0000 </r>
       <r>    0.8390    0.0000 </r>
       <r>    0.8793    0.0000 </r>
       <r>    1.0073    0.0000 </r>
       <r>    1.1009    0.0000 </r>
       <r>    1.1756    0.0000 </r>
       <r>    1.2157    0.0000 </r>
       <r>    1.3240    0.0000 </r>
       <r>    1.3816    0.0000 </r>
       <r>    1.4642    0.0000 </r>
       <r>    1.5067    0.0000 </r>
       <r>    1.5360    0.0000 </r>
       <r>    1.5750    0.0000 </r>
       <r>    1.6541    0.0000 </r>
       <r>    1.7199    0.0000 </r>
       <r>    1.7883    0.0000 </r>
       <r>    2.2605    0.0000 </r>
      </set>
      <set comment="kpoint 3">
       <r>  -24.2033    1.0000 </r>
       <r>  -23.8077    1.0000 </r>
       <r>  -23.7018    1.0000 </r>
       <r>  -23.4631    1.0000 </r>
       <r>  -23.2092    1.0000 </r>
       <r>  -21.8374    1.0000 </r>
       <r>  -12.1542    1.0000 </r>
       <r>  -11.8143    1.0000 </r>
       <r>  -11.7689    1.0000 </r>
       <r>  -11.1827    1.0000 </r>
[...]
       <r>   -22.2431     0.0000    10.0000 </r>
       <r>   -22.1415     0.0000    10.0000 </r>
       <r>   -22.0400     0.0000    10.0000 </r>
       <r>   -21.9384     0.0000    10.0000 </r>
       <r>   -21.8369     0.0000    12.0000 </r>
       <r>   -21.7353     0.0000    12.0000 </r>
       <r>   -21.6338     0.0000    12.0000 </r>
       <r>   -21.5322     0.0000    12.0000 </r>
       <r>   -21.4307     0.0000    12.0000 </r>
       <r>   -21.3292     0.0000    12.0000 </r>
       <r>   -21.2276     0.0000    12.0000 </r>
       <r>   -21.1261     0.0000    12.0000 </r>
       <r>   -21.0245     0.0000    12.0000 </r>
       <r>   -20.9230     0.0000    12.0000 </r>
       <r>   -20.8214     0.0000    12.0000 </r>
       <r>   -20.7199     0.0000    12.0000 </r>
       <r>   -20.6183     0.0000    12.0000 </r>
       <r>   -20.5168     0.0000    12.0000 </r>
       <r>   -20.4152     0.0000    12.0000 </r>
       <r>   -20.3137     0.0000    12.0000 </r>
       <r>   -20.2121     0.0000    12.0000 </r>
       <r>   -20.1106     0.0000    12.0000 </r>
       <r>   -20.0091     0.0000    12.0000 </r>
       <r>   -19.9075     0.0000    12.0000 </r>
       <r>   -19.8060     0.0000    12.0000 </r>
       <r>   -19.7044     0.0000    12.0000 </r>
       <r>   -19.6029     0.0000    12.0000 </r>
       <r>   -19.5013     0.0000    12.0000 </r>
       <r>   -19.3998     0.0000    12.0000 </r>
       <r>   -19.2982     0.0000    12.0000 </r>
       <r>   -19.1967     0.0000    12.0000 </r>
       <r>   -19.0951     0.0000    12.0000 </r>
       <r>   -18.9936     0.0000    12.0000 </r>
       <r>   -18.8920     0.0000    12.0000 </r>
       <r>   -18.7905     0.0000    12.0000 </r>
       <r>   -18.6889     0.0000    12.0000 </r>
       <r>   -18.5874     0.0000    12.0000 </r>
       <r>   -18.4859     0.0000    12.0000 </r>
       <r>   -18.3843     0.0000    12.0000 </r>
       <r>   -18.2828     0.0000    12.0000 </r>
       <r>   -18.1812     0.0000    12.0000 </r>
       <r>   -18.0797     0.0000    12.0000 </r>
       <r>   -17.9781     0.0000    12.0000 </r>
       <r>   -17.8766     0.0000    12.0000 </r>
       <r>   -17.7750     0.0000    12.0000 </r>
       <r>   -17.6735     0.0000    12.0000 </r>
       <r>   -17.5719     0.0000    12.0000 </r>
       <r>   -17.4704     0.0000    12.0000 </r>
       <r>   -17.3688     0.0000    12.0000 </r>
       <r>   -17.2673     0.0000    12.0000 </r>
       <r>   -17.1658     0.0000    12.0000 </r>
       <r>   -17.0642     0.0000    12.0000 </r>
       <r>   -16.9627     0.0000    12.0000 </r>
       <r>   -16.8611     0.0000    12.0000 </r>
       <r>   -16.7596     0.0000    12.0000 </r>
       <r>   -16.6580     0.0000    12.0000 </r>
       <r>   -16.5565     0.0000    12.0000 </r>
       <r>   -16.4549     0.0000    12.0000 </r>
       <r>   -16.3534     0.0000    12.0000 </r>
       <r>   -16.2518     0.0000    12.0000 </r>
       <r>   -16.1503     0.0000    12.0000 </r>
       <r>   -16.0487     0.0000    12.0000 </r>
       <r>   -15.9472     0.0000    12.0000 </r>
       <r>   -15.8456     0.0000    12.0000 </r>
       <r>   -15.7441     0.0000    12.0000 </r>
       <r>   -15.6426     0.0000    12.0000 </r>
       <r>   -15.5410     0.0000    12.0000 </r>
       <r>   -15.4395     0.0000    12.0000 </r>
       <r>   -15.3379     0.0000    12.0000 </r>
       <r>   -15.2364     0.0000    12.0000 </r>
       <r>   -15.1348     0.0000    12.0000 </r>
       <r>   -15.0333     0.0000    12.0000 </r>
       <r>   -14.9317     0.0000    12.0000 </r>
       <r>   -14.8302     0.0000    12.0000 </r>
       <r>   -14.7286     0.0000    12.0000 </r>
       <r>   -14.6271     0.0000    12.0000 </r>
       <r>   -14.5255     0.0000    12.0000 </r>
       <r>   -14.4240     0.0000    12.0000 </r>
       <r>   -14.3225     0.0000    12.0000 </r>
       <r>   -14.2209     0.0000    12.0000 </r>
       <r>   -14.1194     0.0000    12.0000 </r>
       <r>   -14.0178     0.0000    12.0000 </r>
       <r>   -13.9163     0.0000    12.0000 </r>
       <r>   -13.8147     0.0000    12.0000 </r>
       <r>   -13.7132     0.0000    12.0000 </r>
       <r>   -13.6116     0.0000    12.0000 </r>
       <r>   -13.5101     0.0000    12.0000 </r>
       <r>   -13.4085     0.0000    12.0000 </r>
       <r>   -13.3070     0.0000    12.0000 </r>
       <r>   -13.2054     0.0000    12.0000 </r>
       <r>   -13.1039     0.0000    12.0000 </r>
       <r>   -13.0023     0.0000    12.0000 </r>
       <r>   -12.9008     0.0000    12.0000 </r>
       <r>   -12.7993     0.0000    12.0000 </r>
       <r>   -12.6977     0.0000    12.0000 </r>
       <r>   -12.5962     0.0000    12.0000 </r>
       <r>   -12.4946     0.0000    12.0000 </r>
       <r>   -12.3931     0.0000    12.0000 </r>
       <r>   -12.2915     0.0000    12.0000 </r>
       <r>   -12.1900     0.0000    12.0000 </r>
       <r>   -12.0884     0.0000    14.0000 </r>
       <r>   -11.9869     0.0000    14.0000 </r>
       <r>   -11.8853     0.0000    14.0000 </r>
       <r>   -11.7838     0.0000    16.0000 </r>
       <r>   -11.6822     0.0000    18.0000 </r>
       <r>   -11.5807     0.0000    18.0000 </r>
       <r>   -11.4792     0.0000    18.0000 </r>
       <r>   -11.3776     0.0000    18.0000 </r>
       <r>   -11.2761     0.0000    18.0000 </r>
       <r>   -11.1745   144.8733    19.1898 </r>
       <r>   -11.0730     0.0000    20.0000 </r>
       <r>   -10.9714     0.0000    20.0000 </r>
       <r>   -10.8699     0.0000    22.0000 </r>
       <r>   -10.7683     0.0000    22.0000 </r>
       <r>   -10.6668     0.0000    22.0000 </r>
       <r>   -10.5652     0.0000    22.0000 </r>
       <r>   -10.4637     0.0000    22.0000 </r>
       <r>   -10.3621     0.0000    22.0000 </r>
       <r>   -10.2606     0.0000    22.0000 </r>
       <r>   -10.1590     0.0000    22.0000 </r>
       <r>   -10.0575     0.0000    22.0000 </r>
       <r>    -9.9560     0.0000    22.0000 </r>
       <r>    -9.8544     0.0000    22.0000 </r>
       <r>    -9.7529     0.0000    22.0000 </r>
       <r>    -9.6513     0.0000    24.0000 </r>
       <r>    -9.5498     0.0000    24.0000 </r>
       <r>    -9.4482     0.0000    24.0000 </r>
       <r>    -9.3467     0.0000    24.0000 </r>
       <r>    -9.2451     0.0000    24.0000 </r>
       <r>    -9.1436     0.0000    24.0000 </r>
       <r>    -9.0420     0.0000    24.0000 </r>
       <r>    -8.9405     0.0000    24.0000 </r>
       <r>    -8.8389     0.0000    24.0000 </r>
       <r>    -8.7374     0.0000    26.0000 </r>
       <r>    -8.6359     0.0000    28.0000 </r>
       <r>    -8.5343     0.0000    30.0000 </r>
       <r>    -8.4328     0.0000    30.0000 </r>
       <r>    -8.3312     0.0000    30.0000 </r>
       <r>    -8.2297     0.0000    30.0000 </r>
       <r>    -8.1281     0.0000    30.0000 </r>
       <r>    -8.0266     0.0000    30.0000 </r>
       <r>    -7.9250     0.0000    32.0000 </r>
       <r>    -7.8235     0.0000    32.0000 </r>
       <r>    -7.7219    95.9789    32.0375 </r>
       <r>    -7.6204     0.0000    34.0000 </r>
       <r>    -7.5188     0.0000    34.0000 </r>
       <r>    -7.4173     0.0000    34.0000 </r>
       <r>    -7.3157     0.0000    34.0000 </r>
       <r>    -7.2142     4.7931    34.2185 </r>
       <r>    -7.1127     9.4563    36.0961 </r>
       <r>    -7.0111     9.9453    37.6806 </r>
       <r>    -6.9096     2.7131    38.0132 </r>
       <r>    -6.8080     7.9459    39.0219 </r>
       <r>    -6.7065     4.6684    39.6624 </r>
       <r>    -6.6049     1.3909    39.9700 </r>
       <r>    -6.5034    14.2596    40.2916 </r>
       <r>    -6.4018    16.0133    42.6906 </r>
       <r>    -6.3003    39.7423    45.8239 </r>
       <r>    -6.1987     4.4946    47.6710 </r>
       <r>    -6.0972    25.4151    48.4855 </r>
       <r>    -5.9956    20.3772    50.2677 </r>
       <r>    -5.8941    20.3356    53.0315 </r>
       <r>    -5.7926    18.8454    54.7919 </r>
       <r>    -5.6910    20.2742    56.5138 </r>
       <r>    -5.5895    21.1970    58.4886 </r>
       <r>    -5.4879     7.3802    60.7273 </r>
       <r>    -5.3864     4.8663    61.3334 </r>
       <r>    -5.2848     7.4303    61.7659 </r>
       <r>    -5.1833    13.1778    63.2738 </r>
       <r>    -5.0817     1.3096    63.9868 </r>
       <r>    -4.9802    46.1558    66.0032 </r>
       <r>    -4.8786     9.3170    66.8464 </r>
       <r>    -4.7771     5.4964    67.5985 </r>
       <r>    -4.6755     1.6759    67.9627 </r>
       <r>    -4.5740     7.2781    69.3806 </r>
       <r>    -4.4724     5.7414    70.0260 </r>
       <r>    -4.3709    10.1626    70.6322 </r>
       <r>    -4.2694    21.4561    72.9222 </r>
       <r>    -4.1678    16.5400    74.9882 </r>
       <r>    -4.0663    16.8711    76.4115 </r>
       <r>    -3.9647    13.1795    78.2527 </r>
       <r>    -3.8632    28.5346    79.6050 </r>
       <r>    -3.7616     5.0129    80.4450 </r>
       <r>    -3.6601    19.8898    81.5273 </r>
       <r>    -3.5585    24.0886    83.7371 </r>
       <r>    -3.4570     9.0358    84.9499 </r>
       <r>    -3.3554     7.4772    86.8105 </r>
       <r>    -3.2539     6.8416    87.5387 </r>
       <r>    -3.1523     6.8742    88.2292 </r>
       <r>    -3.0508     7.0433    88.9359 </r>
       <r>    -2.9493    43.7719    89.9516 </r>
       <r>    -2.8477    20.1464    92.4485 </r>
       <r>    -2.7462    22.0133    94.3284 </r>
       <r>    -2.6446    23.4265    97.1876 </r>
       <r>    -2.5431    24.5117    99.9196 </r>
       <r>    -2.4415     9.2027   101.4540 </r>
       <r>    -2.3400    18.7264   103.4962 </r>
       <r>    -2.2384    38.7880   104.6592 </r>
       <r>    -2.1369     8.5537   107.2029 </r>
       <r>    -2.0353    15.0333   108.9052 </r>
       <r>    -1.9338     3.5735   109.5201 </r>
       <r>    -1.8322     3.7823   111.1948 </r>
       <r>    -1.7307    13.8205   112.0071 </r>
       <r>    -1.6292    27.5885   114.2021 </r>
       <r>    -1.5276    28.4906   117.2587 </r>
       <r>    -1.4261    28.9487   120.2368 </r>
       <r>    -1.3245    22.1929   122.7797 </r>
       <r>    -1.2230    15.5730   124.7400 </r>
       <r>    -1.1214    15.0873   126.2652 </r>
       <r>    -1.0199    15.3310   127.8404 </r>
       <r>    -0.9183    15.9149   129.3789 </r>
       <r>    -0.8168    15.6839   131.6852 </r>
       <r>    -0.7152    16.9145   134.2314 </r>
       <r>    -0.6137    19.4778   136.4083 </r>
       <r>    -0.5121    69.9356   138.2459 </r>
       <r>    -0.4106    28.1347   141.1263 </r>
       <r>    -0.3090    15.1612   143.2055 </r>
       <r>    -0.2075    10.8073   145.2291 </r>
       <r>    -0.1060    11.3854   146.9232 </r>
       <r>    -0.0044    19.1213   148.6781 </r>
       <r>     0.0971    19.6876   150.4028 </r>
       <r>     0.1987    35.5880   153.6127 </r>
       <r>     0.3002    13.6369   156.5816 </r>
       <r>     0.4018    28.3949   158.8934 </r>
       <r>     0.5033    19.6929   161.3279 </r>
       <r>     0.6049    28.6473   163.4026 </r>
       <r>     0.7064    16.5769   166.8327 </r>
       <r>     0.8080    19.0549   169.1765 </r>
       <r>     0.9095    35.0128   171.7548 </r>
       <r>     1.0111    21.8428   174.4123 </r>
       <r>     1.1126    27.4755   176.3932 </r>
       <r>     1.2141    29.2085   179.3243 </r>
       <r>     1.3157    25.3580   181.7040 </r>
       <r>     1.4172    29.8915   185.0860 </r>
       <r>     1.5188    48.5502   188.6410 </r>
       <r>     1.6203    42.1118   192.3927 </r>
       <r>     1.7219    41.2748   196.9670 </r>
       <r>     1.8234    24.5657   200.4684 </r>
       <r>     1.9250     5.2743   201.8763 </r>
       <r>     2.0265     6.9883   202.4395 </r>
       <r>     2.1281     8.3585   203.2793 </r>
       <r>     2.2296     4.7881   203.8560 </r>
       <r>     2.3312     0.0000   204.0000 </r>
       <r>     2.4327     0.0000   204.0000 </r>
       <r>     2.5343     0.0000   204.0000 </r>
       <r>     2.6358     0.0000   204.0000 </r>
       <r>     2.7373     0.0000   204.0000 </r>
       <r>     2.8389     0.0000   204.0000 </r>
       <r>     2.9404     0.0000   204.0000 </r>
       <r>     3.0420     0.0000   204.0000 </r>
       <r>     3.1435     0.0000   204.0000 </r>
       <r>     3.2451     0.0000   204.0000 </r>
       <r>     3.3466     0.0000   204.0000 </r>
       <r>     3.4482     0.0000   204.0000 </r>
       <r>     3.5497     0.0000   204.0000 </r>
       <r>     3.6513     0.0000   204.0000 </r>
       <r>     3.7528     0.0000   204.0000 </r>
       <r>     3.8544     0.0000   204.0000 </r>
       <r>     3.9559     0.0000   204.0000 </r>
       <r>     4.0574     0.0000   204.0000 </r>
       <r>     4.1590     0.0000   204.0000 </r>
       <r>     4.2605     0.0000   204.0000 </r>
      </set>
     </set>
    </array>
   </total>
  </dos>
 </calculation>
 <structure name="finalpos" >
  <crystal>
   <varray name="basis" >
    <v>       9.55575275       0.00000000       0.00000000 </v>
    <v>      -4.77787638       8.27552464       0.00000000 </v>
    <v>       0.00000000       0.00000000      32.62509537 </v>
   </varray>
   <i name="volume">   2579.95558872 </i>
   <varray name="rec_basis" >
    <v>       0.10464900       0.06041913       0.00000000 </v>
    <v>       0.00000000       0.12083826       0.00000000 </v>
    <v>       0.00000000       0.00000000       0.03065125 </v>
   </varray>
  </crystal>
  <varray name="positions" >
   <v>       0.00000000       0.00000000       0.00000000 </v>
   <v>       0.99936632       0.00177762       0.15829218 </v>
   <v>       0.00231510       0.01408479       0.33005254 </v>
   <v>       0.00000001       0.33333336       0.00000000 </v>
   <v>       0.00021789       0.33590117       0.15777477 </v>
   <v>       0.99157885       0.34177957       0.31249418 </v>
   <v>       0.00000002       0.66666672       0.00000000 </v>
   <v>       0.00057025       0.66968798       0.15784315 </v>
   <v>       0.99900166       0.67799725       0.31516272 </v>
   <v>       0.33333334       0.00000000       0.00000000 </v>
   <v>       0.33390537       0.00174055       0.15733659 </v>
   <v>       0.33153863       0.01280174       0.30959777 </v>
   <v>       0.33333335       0.33333336       0.00000000 </v>
   <v>       0.33152061       0.33322840       0.15713111 </v>
   <v>       0.32020900       0.33424916       0.31239521 </v>
   <v>       0.33333336       0.66666672       0.00000000 </v>
   <v>       0.33301507       0.67022356       0.15791535 </v>
   <v>       0.32210066       0.68192132       0.33017190 </v>
   <v>       0.66666668       0.00000000       0.00000000 </v>
   <v>       0.66558260       0.00043520       0.15790840 </v>
   <v>       0.67020580       0.01330986       0.31441480 </v>
   <v>       0.66666668       0.33333336       0.00000000 </v>
   <v>       0.66671668       0.33626383       0.15854859 </v>
   <v>       0.65942349       0.33383146       0.33307916 </v>
   <v>       0.66666670       0.66666672       0.00000000 </v>
   <v>       0.66936494       0.66951718       0.15758571 </v>
   <v>       0.65839877       0.68168826       0.31637817 </v>
   <v>       0.11111113       0.22222222       0.07982145 </v>
   <v>       0.10659967       0.22359099       0.23655608 </v>
   <v>       0.11111114       0.55555561       0.07982145 </v>
   <v>       0.11565686       0.56206543       0.23721465 </v>
   <v>       0.11111116       0.88888894       0.07982145 </v>
   <v>       0.10863820       0.89398445       0.23579137 </v>
   <v>       0.44444450       0.22222222       0.07982145 </v>
   <v>       0.44882134       0.23374167       0.23634825 </v>
   <v>       0.44444450       0.55555561       0.07982145 </v>
   <v>       0.44671676       0.55974904       0.23364198 </v>
   <v>       0.44444451       0.88888894       0.07982145 </v>
   <v>       0.44348291       0.88745109       0.23750416 </v>
   <v>       0.77777779       0.22222222       0.07982145 </v>
   <v>       0.77440907       0.22626230       0.23580725 </v>
   <v>       0.77777781       0.55555561       0.07982145 </v>
   <v>       0.77708882       0.55770594       0.23758894 </v>
   <v>       0.77777784       0.88888894       0.07982145 </v>
   <v>       0.77993553       0.89122783       0.23880946 </v>
   <v>       0.00010437       0.99963085       0.39638733 </v>
   <v>       0.29073812       0.96368797       0.41287388 </v>
   <v>       0.87949259       0.22271156       0.41588534 </v>
   <v>       0.60916704       0.27136690       0.40025499 </v>
   <v>       0.74641600       0.57028289       0.35264413 </v>
   <v>       0.35053101       0.70764936       0.39572093 </v>
   <v>       0.96769346       0.06967879       0.41085925 </v>
   <v>       0.09457733       0.00614079       0.41037269 </v>
   <v>       0.39260801       0.06796982       0.41082024 </v>
   <v>       0.25383560       0.93918310       0.38373256 </v>
   <v>       0.97890810       0.32786270       0.41820842 </v>
   <v>       0.86475944       0.20760902       0.38531072 </v>
   <v>       0.61784813       0.37303399       0.40942073 </v>
   <v>       0.69923974       0.26341834       0.41318536 </v>
   <v>       0.78782864       0.62050707       0.37944187 </v>
   <v>       0.43215723       0.55598221       0.33289333 </v>
   <v>       0.34071779       0.79909875       0.40711777 </v>
   <v>       0.45415013       0.72224793       0.40516334 </v>
  </varray>
  <varray name="selective"  type="logical" >
   <v type="logical" >  F  F  F </v>
   <v type="logical" >  T  T  T </v>
   <v type="logical" >  T  T  T </v>
   <v type="logical" >  F  F  F </v>
   <v type="logical" >  T  T  T </v>
   <v type="logical" >  T  T  T </v>
   <v type="logical" >  F  F  F </v>
   <v type="logical" >  T  T  T </v>
   <v type="logical" >  T  T  T </v>
   <v type="logical" >  F  F  F </v>
   <v type="logical" >  T  T  T </v>
   <v type="logical" >  T  T  T </v>
   <v type="logical" >  F  F  F </v>
   <v type="logical" >  T  T  T </v>
   <v type="logical" >  T  T  T </v>
   <v type="logical" >  F  F  F </v>
   <v type="logical" >  T  T  T </v>
   <v type="logical" >  T  T  T </v>
   <v type="logical" >  F  F  F </v>
   <v type="logical" >  T  T  T </v>
   <v type="logical" >  T  T  T </v>
   <v type="logical" >  F  F  F </v>
   <v type="logical" >  T  T  T </v>
   <v type="logical" >  T  T  T </v>
   <v type="logical" >  F  F  F </v>
   <v type="logical" >  T  T  T </v>
   <v type="logical" >  T  T  T </v>
   <v type="logical" >  F  F  F </v>
   <v type="logical" >  T  T  T </v>
   <v type="logical" >  F  F  F </v>
   <v type="logical" >  T  T  T </v>
   <v type="logical" >  F  F  F </v>
   <v type="logical" >  T  T  T </v>
   <v type="logical" >  F  F  F </v>
   <v type="logical" >  T  T  T </v>
   <v type="logical" >  F  F  F </v>
   <v type="logical" >  T  T  T </v>
   <v type="logical" >  F  F  F </v>
   <v type="logical" >  T  T  T </v>
   <v type="logical" >  F  F  F </v>
   <v type="logical" >  T  T  T </v>
   <v type="logical" >  F  F  F </v>
   <v type="logical" >  T  T  T </v>
   <v type="logical" >  F  F  F </v>
   <v type="logical" >  T  T  T </v>
   <v type="logical" >  T  T  T </v>
   <v type="logical" >  T  T  T </v>
   <v type="logical" >  T  T  T </v>
   <v type="logical" >  T  T  T </v>
   <v type="logical" >  T  T  T </v>
   <v type="logical" >  T  T  T </v>
   <v type="logical" >  T  T  T </v>
   <v type="logical" >  T  T  T </v>
   <v type="logical" >  T  T  T </v>
   <v type="logical" >  T  T  T </v>
   <v type="logical" >  T  T  T </v>
   <v type="logical" >  T  T  T </v>
   <v type="logical" >  T  T  T </v>
   <v type="logical" >  T  T  T </v>
   <v type="logical" >  T  T  T </v>
   <v type="logical" >  T  T  T </v>
   <v type="logical" >  T  T  T </v>
   <v type="logical" >  T  T  T </v>
  </varray>
  <nose>
   <v>      -3.00000000       0.00000000       0.00010000       0.00010000 </v>
  </nose>
 </structure>
</modeling>
