Mg_slab_in_a_box                        
           1
     9.555753    0.000000    0.000000
    -4.777876    8.275525    0.000000
     0.000000    0.000000   32.625095
   Mg   O    H 
  45   6  12
Direct configuration=     1
   0.00000000  0.00000000  0.00000000
   0.99936632  0.00177762  0.15829218
   0.00231510  0.01408479  0.33005254
   0.00000001  0.33333336  0.00000000
   0.00021789  0.33590117  0.15777477
   0.99157885  0.34177957  0.31249418
   0.00000002  0.66666672  0.00000000
   0.00057025  0.66968798  0.15784315
   0.99900166  0.67799725  0.31516272
   0.33333334  0.00000000  0.00000000
   0.33390537  0.00174055  0.15733659
   0.33153863  0.01280174  0.30959777
   0.33333335  0.33333336  0.00000000
   0.33152061  0.33322840  0.15713111
   0.32020900  0.33424916  0.31239521
   0.33333336  0.66666672  0.00000000
   0.33301507  0.67022356  0.15791535
   0.32210066  0.68192132  0.33017190
   0.66666668  0.00000000  0.00000000
   0.66558260  0.00043520  0.15790840
   0.67020580  0.01330986  0.31441480
   0.66666668  0.33333336  0.00000000
   0.66671668  0.33626383  0.15854859
   0.65942349  0.33383146  0.33307916
   0.66666670  0.66666672  0.00000000
   0.66936494  0.66951718  0.15758571
   0.65839877  0.68168826  0.31637817
   0.11111113  0.22222222  0.07982145
   0.10659967  0.22359099  0.23655608
   0.11111114  0.55555561  0.07982145
   0.11565686  0.56206543  0.23721465
   0.11111116  0.88888894  0.07982145
   0.10863820  0.89398445  0.23579137
   0.44444450  0.22222222  0.07982145
   0.44882134  0.23374167  0.23634825
   0.44444450  0.55555561  0.07982145
   0.44671676  0.55974904  0.23364198
   0.44444451  0.88888894  0.07982145
   0.44348291  0.88745109  0.23750416
   0.77777779  0.22222222  0.07982145
   0.77440907  0.22626230  0.23580725
   0.77777781  0.55555561  0.07982145
   0.77708882  0.55770594  0.23758894
   0.77777784  0.88888894  0.07982145
   0.77993553  0.89122783  0.23880946
   0.00010437  0.99963085  0.39638733
   0.29073812  0.96368797  0.41287388
   0.87949259  0.22271156  0.41588534
   0.60916704  0.27136690  0.40025499
   0.74641600  0.57028289  0.35264413
   0.35053101  0.70764936  0.39572093
   0.96769346  0.06967879  0.41085925
   0.09457733  0.00614079  0.41037269
   0.39260801  0.06796982  0.41082024
   0.25383560  0.93918310  0.38373256
   0.97890810  0.32786270  0.41820842
   0.86475944  0.20760902  0.38531072
   0.61784813  0.37303399  0.40942073
   0.69923974  0.26341834  0.41318536
   0.78782864  0.62050707  0.37944187
   0.43215723  0.55598221  0.33289333
   0.34071779  0.79909875  0.40711777
   0.45415013  0.72224793  0.40516334
