  63  63   0   0
  0.4095168E+02  0.9555753E-09  0.9555753E-09  0.3262510E-08  0.5000000E-15
  1.000000000000000E-004
  CAR 
 Mg_slab_in_a_box                        
      4.06401599    -25.56316484  301     -0.78533071      1.00000000
    -25.563  0.0000E+00  0.0000E+00
    -25.464  0.0000E+00  0.0000E+00
    -25.366  0.0000E+00  0.0000E+00
    -25.267  0.0000E+00  0.0000E+00
    -25.168  0.0000E+00  0.0000E+00
    -25.069  0.0000E+00  0.0000E+00
    -24.971  0.0000E+00  0.0000E+00
    -24.872  0.0000E+00  0.0000E+00
    -24.773  0.0000E+00  0.0000E+00
    -24.674  0.0000E+00  0.0000E+00
    -24.576  0.0000E+00  0.0000E+00
    -24.477  0.0000E+00  0.0000E+00
    -24.378  0.0000E+00  0.0000E+00
    -24.279  0.0000E+00  0.0000E+00
    -24.181  0.0000E+00  0.0000E+00
    -24.082  0.0000E+00  0.0000E+00
    -23.983  0.0000E+00  0.0000E+00
    -23.884  0.0000E+00  0.0000E+00
    -23.786  0.0000E+00  0.0000E+00
    -23.687  0.0000E+00  0.0000E+00
    -23.588  0.0000E+00  0.0000E+00
    -23.489  0.0000E+00  0.4000E+01
    -23.391  0.0000E+00  0.4000E+01
    -23.292  0.1015E+03  0.5295E+01
    -23.193  0.0000E+00  0.8000E+01
    -23.094  0.0000E+00  0.8000E+01
    -22.995  0.0000E+00  0.1000E+02
    -22.897  0.0000E+00  0.1000E+02
    -22.798  0.0000E+00  0.1000E+02
    -22.699  0.0000E+00  0.1000E+02
    -22.600  0.0000E+00  0.1000E+02
    -22.502  0.0000E+00  0.1000E+02
    -22.403  0.0000E+00  0.1000E+02
    -22.304  0.0000E+00  0.1000E+02
    -22.205  0.0000E+00  0.1000E+02
    -22.107  0.0000E+00  0.1000E+02
    -22.008  0.0000E+00  0.1000E+02
    -21.909  0.0000E+00  0.1000E+02
    -21.810  0.0000E+00  0.1000E+02
    -21.712  0.0000E+00  0.1000E+02
    -21.613  0.0000E+00  0.1000E+02
    -21.514  0.0000E+00  0.1000E+02
    -21.415  0.0000E+00  0.1000E+02
    -21.317  0.0000E+00  0.1000E+02
    -21.218  0.0000E+00  0.1000E+02
    -21.119  0.0000E+00  0.1000E+02
    -21.020  0.0000E+00  0.1200E+02
    -20.922  0.0000E+00  0.1200E+02
    -20.823  0.0000E+00  0.1200E+02
    -20.724  0.0000E+00  0.1200E+02
    -20.625  0.0000E+00  0.1200E+02
    -20.527  0.0000E+00  0.1200E+02
    -20.428  0.0000E+00  0.1200E+02
    -20.329  0.0000E+00  0.1200E+02
    -20.230  0.0000E+00  0.1200E+02
    -20.132  0.0000E+00  0.1200E+02
    -20.033  0.0000E+00  0.1200E+02
    -19.934  0.0000E+00  0.1200E+02
    -19.835  0.0000E+00  0.1200E+02
    -19.736  0.0000E+00  0.1200E+02
    -19.638  0.0000E+00  0.1200E+02
    -19.539  0.0000E+00  0.1200E+02
    -19.440  0.0000E+00  0.1200E+02
    -19.341  0.0000E+00  0.1200E+02
    -19.243  0.0000E+00  0.1200E+02
    -19.144  0.0000E+00  0.1200E+02
    -19.045  0.0000E+00  0.1200E+02
    -18.946  0.0000E+00  0.1200E+02
    -18.848  0.0000E+00  0.1200E+02
    -18.749  0.0000E+00  0.1200E+02
    -18.650  0.0000E+00  0.1200E+02
    -18.551  0.0000E+00  0.1200E+02
    -18.453  0.0000E+00  0.1200E+02
    -18.354  0.0000E+00  0.1200E+02
    -18.255  0.0000E+00  0.1200E+02
    -18.156  0.0000E+00  0.1200E+02
    -18.058  0.0000E+00  0.1200E+02
    -17.959  0.0000E+00  0.1200E+02
    -17.860  0.0000E+00  0.1200E+02
    -17.761  0.0000E+00  0.1200E+02
    -17.663  0.0000E+00  0.1200E+02
    -17.564  0.0000E+00  0.1200E+02
    -17.465  0.0000E+00  0.1200E+02
    -17.366  0.0000E+00  0.1200E+02
    -17.268  0.0000E+00  0.1200E+02
    -17.169  0.0000E+00  0.1200E+02
    -17.070  0.0000E+00  0.1200E+02
    -16.971  0.0000E+00  0.1200E+02
    -16.873  0.0000E+00  0.1200E+02
    -16.774  0.0000E+00  0.1200E+02
    -16.675  0.0000E+00  0.1200E+02
    -16.576  0.0000E+00  0.1200E+02
    -16.477  0.0000E+00  0.1200E+02
    -16.379  0.0000E+00  0.1200E+02
    -16.280  0.0000E+00  0.1200E+02
    -16.181  0.0000E+00  0.1200E+02
    -16.082  0.0000E+00  0.1200E+02
    -15.984  0.0000E+00  0.1200E+02
    -15.885  0.0000E+00  0.1200E+02
    -15.786  0.0000E+00  0.1200E+02
    -15.687  0.0000E+00  0.1200E+02
    -15.589  0.0000E+00  0.1200E+02
    -15.490  0.0000E+00  0.1200E+02
    -15.391  0.0000E+00  0.1200E+02
    -15.292  0.0000E+00  0.1200E+02
    -15.194  0.0000E+00  0.1200E+02
    -15.095  0.0000E+00  0.1200E+02
    -14.996  0.0000E+00  0.1200E+02
    -14.897  0.0000E+00  0.1200E+02
    -14.799  0.0000E+00  0.1200E+02
    -14.700  0.0000E+00  0.1200E+02
    -14.601  0.0000E+00  0.1200E+02
    -14.502  0.0000E+00  0.1200E+02
    -14.404  0.0000E+00  0.1200E+02
    -14.305  0.0000E+00  0.1200E+02
    -14.206  0.0000E+00  0.1200E+02
    -14.107  0.0000E+00  0.1200E+02
    -14.009  0.0000E+00  0.1200E+02
    -13.910  0.0000E+00  0.1200E+02
    -13.811  0.0000E+00  0.1200E+02
    -13.712  0.0000E+00  0.1200E+02
    -13.614  0.0000E+00  0.1200E+02
    -13.515  0.0000E+00  0.1200E+02
    -13.416  0.0000E+00  0.1200E+02
    -13.317  0.0000E+00  0.1200E+02
    -13.219  0.0000E+00  0.1200E+02
    -13.120  0.0000E+00  0.1200E+02
    -13.021  0.0000E+00  0.1200E+02
    -12.922  0.0000E+00  0.1200E+02
    -12.823  0.0000E+00  0.1200E+02
    -12.725  0.0000E+00  0.1200E+02
    -12.626  0.0000E+00  0.1200E+02
    -12.527  0.0000E+00  0.1200E+02
    -12.428  0.0000E+00  0.1200E+02
    -12.330  0.0000E+00  0.1200E+02
    -12.231  0.0000E+00  0.1200E+02
    -12.132  0.0000E+00  0.1200E+02
    -12.033  0.0000E+00  0.1200E+02
    -11.935  0.0000E+00  0.1200E+02
    -11.836  0.0000E+00  0.1200E+02
    -11.737  0.0000E+00  0.1200E+02
    -11.638  0.0000E+00  0.1400E+02
    -11.540  0.0000E+00  0.1600E+02
    -11.441  0.0000E+00  0.1600E+02
    -11.342  0.0000E+00  0.1600E+02
    -11.243  0.0000E+00  0.1800E+02
    -11.145  0.0000E+00  0.1800E+02
    -11.046  0.0000E+00  0.2000E+02
    -10.947  0.0000E+00  0.2000E+02
    -10.848  0.0000E+00  0.2200E+02
    -10.750  0.0000E+00  0.2200E+02
    -10.651  0.0000E+00  0.2200E+02
    -10.552  0.0000E+00  0.2200E+02
    -10.453  0.0000E+00  0.2200E+02
    -10.355  0.0000E+00  0.2200E+02
    -10.256  0.0000E+00  0.2200E+02
    -10.157  0.0000E+00  0.2200E+02
    -10.058  0.0000E+00  0.2200E+02
     -9.960  0.0000E+00  0.2200E+02
     -9.861  0.0000E+00  0.2200E+02
     -9.762  0.0000E+00  0.2200E+02
     -9.663  0.0000E+00  0.2200E+02
     -9.564  0.0000E+00  0.2200E+02
     -9.466  0.0000E+00  0.2200E+02
     -9.367  0.0000E+00  0.2200E+02
     -9.268  0.0000E+00  0.2200E+02
     -9.169  0.0000E+00  0.2200E+02
     -9.071  0.0000E+00  0.2200E+02
     -8.972  0.0000E+00  0.2200E+02
     -8.873  0.0000E+00  0.2200E+02
     -8.774  0.0000E+00  0.2200E+02
     -8.676  0.0000E+00  0.2200E+02
     -8.577  0.1217E+03  0.2500E+02
     -8.478  0.0000E+00  0.2600E+02
     -8.379  0.0000E+00  0.2800E+02
     -8.281  0.4746E+02  0.2833E+02
     -8.182  0.0000E+00  0.3000E+02
     -8.083  0.0000E+00  0.3000E+02
     -7.984  0.0000E+00  0.3000E+02
     -7.886  0.0000E+00  0.3000E+02
     -7.787  0.0000E+00  0.3000E+02
     -7.688  0.0000E+00  0.3200E+02
     -7.589  0.0000E+00  0.3200E+02
     -7.491  0.1260E+01  0.3402E+02
     -7.392  0.4558E+01  0.3431E+02
     -7.293  0.7410E+01  0.3495E+02
     -7.194  0.4839E+01  0.3555E+02
     -7.096  0.2268E+01  0.3590E+02
     -6.997  0.5249E+01  0.3622E+02
     -6.898  0.1682E+02  0.3746E+02
     -6.799  0.1229E+01  0.3801E+02
     -6.701  0.8923E+01  0.3851E+02
     -6.602  0.1514E+02  0.3985E+02
     -6.503  0.1061E+02  0.4083E+02
     -6.404  0.5808E+01  0.4177E+02
     -6.305  0.2860E+02  0.4426E+02
     -6.207  0.1736E+02  0.4589E+02
     -6.108  0.7147E+01  0.4766E+02
     -6.009  0.1422E+02  0.4872E+02
     -5.910  0.1384E+02  0.5030E+02
     -5.812  0.9265E+01  0.5278E+02
     -5.713  0.4681E+01  0.5347E+02
     -5.614  0.5699E+01  0.5546E+02
     -5.515  0.2800E+02  0.5828E+02
     -5.417  0.5363E+01  0.5992E+02
     -5.318  0.3258E+02  0.6130E+02
     -5.219  0.1640E+02  0.6306E+02
     -5.120  0.1334E+02  0.6459E+02
     -5.022  0.7546E+01  0.6564E+02
     -4.923  0.1113E+02  0.6605E+02
     -4.824  0.1536E+02  0.6804E+02
     -4.725  0.1502E+02  0.6983E+02
     -4.627  0.1563E+02  0.7083E+02
     -4.528  0.1520E+02  0.7324E+02
     -4.429  0.7548E+01  0.7516E+02
     -4.330  0.1844E+02  0.7662E+02
     -4.232  0.1181E+02  0.7827E+02
     -4.133  0.3685E+02  0.7978E+02
     -4.034  0.5462E+01  0.8043E+02
     -3.935  0.2305E+02  0.8175E+02
     -3.837  0.2412E+02  0.8412E+02
     -3.738  0.1311E+02  0.8490E+02
     -3.639  0.8921E+01  0.8661E+02
     -3.540  0.7880E+01  0.8735E+02
     -3.442  0.6699E+01  0.8807E+02
     -3.343  0.6702E+01  0.8872E+02
     -3.244  0.6992E+01  0.8940E+02
     -3.145  0.1768E+02  0.9178E+02
     -3.047  0.1521E+02  0.9364E+02
     -2.948  0.3419E+02  0.9655E+02
     -2.849  0.2278E+02  0.9959E+02
     -2.750  0.1067E+02  0.1012E+03
     -2.651  0.2289E+02  0.1025E+03
     -2.553  0.5085E+01  0.1042E+03
     -2.454  0.1569E+02  0.1066E+03
     -2.355  0.5081E+02  0.1080E+03
     -2.256  0.3956E+01  0.1092E+03
     -2.158  0.2881E+01  0.1096E+03
     -2.059  0.7159E+01  0.1114E+03
     -1.960  0.1918E+02  0.1126E+03
     -1.861  0.2854E+02  0.1153E+03
     -1.763  0.3090E+02  0.1183E+03
     -1.664  0.2721E+02  0.1213E+03
     -1.565  0.2195E+02  0.1237E+03
     -1.466  0.2333E+02  0.1259E+03
     -1.368  0.1207E+02  0.1273E+03
     -1.269  0.9690E+01  0.1284E+03
     -1.170  0.1280E+02  0.1294E+03
     -1.071  0.1922E+02  0.1317E+03
     -0.973  0.1943E+02  0.1342E+03
     -0.874  0.5697E+01  0.1366E+03
     -0.775  0.7929E+02  0.1387E+03
     -0.676  0.3388E+02  0.1421E+03
     -0.578  0.1271E+02  0.1442E+03
     -0.479  0.9439E+01  0.1449E+03
     -0.380  0.2331E+02  0.1466E+03
     -0.281  0.1148E+02  0.1477E+03
     -0.183  0.6411E+01  0.1492E+03
     -0.084  0.9867E+01  0.1516E+03
      0.015  0.1175E+02  0.1540E+03
      0.114  0.3325E+02  0.1571E+03
      0.212  0.7908E+01  0.1601E+03
      0.311  0.0000E+00  0.1620E+03
      0.410  0.3962E+02  0.1640E+03
      0.509  0.2788E+02  0.1664E+03
      0.608  0.1508E+02  0.1686E+03
      0.706  0.1874E+02  0.1706E+03
      0.805  0.2516E+02  0.1728E+03
      0.904  0.2551E+02  0.1753E+03
      1.003  0.3118E+02  0.1773E+03
      1.101  0.3182E+02  0.1799E+03
      1.200  0.3168E+02  0.1830E+03
      1.299  0.3019E+02  0.1870E+03
      1.398  0.2348E+02  0.1905E+03
      1.496  0.4199E+02  0.1944E+03
      1.595  0.3361E+02  0.1982E+03
      1.694  0.9826E+01  0.2001E+03
      1.793  0.1086E+02  0.2008E+03
      1.891  0.1008E+02  0.2020E+03
      1.990  0.1738E+02  0.2028E+03
      2.089  0.0000E+00  0.2040E+03
      2.188  0.0000E+00  0.2040E+03
      2.286  0.0000E+00  0.2040E+03
      2.385  0.0000E+00  0.2040E+03
      2.484  0.0000E+00  0.2040E+03
      2.583  0.0000E+00  0.2040E+03
      2.681  0.0000E+00  0.2040E+03
      2.780  0.0000E+00  0.2040E+03
      2.879  0.0000E+00  0.2040E+03
      2.978  0.0000E+00  0.2040E+03
      3.076  0.0000E+00  0.2040E+03
      3.175  0.0000E+00  0.2040E+03
      3.274  0.0000E+00  0.2040E+03
      3.373  0.0000E+00  0.2040E+03
      3.471  0.0000E+00  0.2040E+03
      3.570  0.0000E+00  0.2040E+03
      3.669  0.0000E+00  0.2040E+03
      3.768  0.0000E+00  0.2040E+03
      3.867  0.0000E+00  0.2040E+03
      3.965  0.0000E+00  0.2040E+03
      4.064  0.0000E+00  0.2040E+03
