 vasp.5.4.4.18Apr17-6-g9f103f2a35 (build Jun 08 2018 12:06:12) complex          
  
 executed on             LinuxIFC date 2019.06.06  07:23:23
 running on   72 total cores
 distrk:  each k-point on   72 cores,    1 groups
 distr:  one band on NCORES_PER_BAND=  24 cores,    3 groups


--------------------------------------------------------------------------------------------------------


 INCAR:
 POTCAR:    PAW_PBE Mg 13Apr2007                  
 POTCAR:    PAW_PBE O 08Apr2002                   
 POTCAR:    PAW_PBE H 15Jun2001                   

 ----------------------------------------------------------------------------- 
|                                                                             |
|           W    W    AA    RRRRR   N    N  II  N    N   GGGG   !!!           |
|           W    W   A  A   R    R  NN   N  II  NN   N  G    G  !!!           |
|           W    W  A    A  R    R  N N  N  II  N N  N  G       !!!           |
|           W WW W  AAAAAA  RRRRR   N  N N  II  N  N N  G  GGG   !            |
|           WW  WW  A    A  R   R   N   NN  II  N   NN  G    G                |
|           W    W  A    A  R    R  N    N  II  N    N   GGGG   !!!           |
|                                                                             |
|      For optimal performance we recommend to set                            |
|        NCORE= 4 - approx SQRT( number of cores)                             |
|      NCORE specifies how many cores store one orbital (NPAR=cpu/NCORE).     |
|      This setting can  greatly improve the performance of VASP for DFT.     |
|      The default,   NCORE=1            might be grossly inefficient         |
|      on modern multi-core architectures or massively parallel machines.     |
|      Do your own testing !!!!                                               |
|      Unfortunately you need to use the default for GW and RPA calculations. |
|      (for HF NCORE is supported but not extensively tested yet)             |
|                                                                             |
 ----------------------------------------------------------------------------- 


 ----------------------------------------------------------------------------- 
|                                                                             |
|  ADVICE TO THIS USER RUNNING 'VASP/VAMP'   (HEAR YOUR MASTER'S VOICE ...):  |
|                                                                             |
|      You have switched on vdW-DFT.                                          |
|      This routine was written and supplied by Jiri Klimes.                  |
|      We recommed that you carefully read and cite the following             |
|      publication                                                            |
|      J. Klimes, D.R. Bowler, A. Michelides                                  |
|        J. Phys.: Cond Matt. 22 022201 (2010)                                |
|      J. Klimes, D.R. Bowler, A. Michelides                                  |
|        Phys. Rev. B. 83, 195131 (2011)                                      |
|      and references therein.                                                |
|                                                                             |
 ----------------------------------------------------------------------------- 

 POTCAR:    PAW_PBE Mg 13Apr2007                  
   VRHFIN =Mg: s2p0                                                             
   LEXCH  = PE                                                                  
   EATOM  =    23.0369 eV,    1.6932 Ry                                         
                                                                                
   TITEL  = PAW_PBE Mg 13Apr2007                                                
   LULTRA =        F    use ultrasoft PP ?                                      
   IUNSCR =        1    unscreen: 0-lin 1-nonlin 2-no                           
   RPACOR =    1.500    partial core radius                                     
   POMASS =   24.305; ZVAL   =    2.000    mass and valenz                      
   RCORE  =    2.000    outmost cutoff radius                                   
   RWIGS  =    2.880; RWIGS  =    1.524    wigner-seitz radius (au A)           
   ENMAX  =  200.000; ENMIN  =  100.000 eV                                      
   RCLOC  =    1.506    cutoff for local pot                                    
   LCOR   =        T    correct aug charges                                     
   LPAW   =        T    paw PP                                                  
   EAUG   =  454.734                                                            
   DEXC   =    0.000                                                            
   RMAX   =    2.045    core radius for proj-oper                               
   RAUG   =    1.300    factor for augmentation sphere                          
   RDEP   =    2.025    radius for radial grids                                 
   RDEPT  =    1.942    core radius for aug-charge                              
                                                                                
   Atomic configuration                                                         
    6 entries                                                                   
     n  l   j            E        occ.                                          
     1  0  0.50     -1259.6230   2.0000                                         
     2  0  0.50       -79.8442   2.0000                                         
     2  1  1.50       -46.6121   6.0000                                         
     3  0  0.50        -4.7055   2.0000                                         
     3  1  0.50        -1.3660   0.0000                                         
     3  2  1.50        -1.3606   0.0000                                         
   Description                                                                  
     l       E           TYP  RCUT    TYP  RCUT                                 
     0     -4.7054661     23  2.000                                             
     0     27.2116520     23  2.000                                             
     1      1.3605826     23  2.000                                             
     1     27.2116520     23  2.000                                             
     2     -1.3605826     23  2.000                                             
  local pseudopotential read in
  partial core-charges read in
  partial kinetic energy density read in
  atomic valenz-charges read in
  non local Contribution for L=           0  read in
    real space projection operators read in
  non local Contribution for L=           0  read in
    real space projection operators read in
  non local Contribution for L=           1  read in
    real space projection operators read in
  non local Contribution for L=           1  read in
    real space projection operators read in
  non local Contribution for L=           2  read in
    real space projection operators read in
    PAW grid and wavefunctions read in
 
   number of l-projection  operators is LMAX  =           5
   number of lm-projection operators is LMMAX =          13
 
 POTCAR:    PAW_PBE O 08Apr2002                   
   VRHFIN =O: s2p4                                                              
   LEXCH  = PE                                                                  
   EATOM  =   432.3788 eV,   31.7789 Ry                                         
                                                                                
   TITEL  = PAW_PBE O 08Apr2002                                                 
   LULTRA =        F    use ultrasoft PP ?                                      
   IUNSCR =        1    unscreen: 0-lin 1-nonlin 2-no                           
   RPACOR =    1.200    partial core radius                                     
   POMASS =   16.000; ZVAL   =    6.000    mass and valenz                      
   RCORE  =    1.520    outmost cutoff radius                                   
   RWIGS  =    1.550; RWIGS  =    0.820    wigner-seitz radius (au A)           
   ENMAX  =  400.000; ENMIN  =  300.000 eV                                      
   ICORE  =        2    local potential                                         
   LCOR   =        T    correct aug charges                                     
   LPAW   =        T    paw PP                                                  
   EAUG   =  605.392                                                            
   DEXC   =    0.000                                                            
   RMAX   =    1.553    core radius for proj-oper                               
   RAUG   =    1.300    factor for augmentation sphere                          
   RDEP   =    1.550    radius for radial grids                                 
   RDEPT  =    1.329    core radius for aug-charge                              
                                                                                
   Atomic configuration                                                         
    4 entries                                                                   
     n  l   j            E        occ.                                          
     1  0  0.50      -514.6923   2.0000                                         
     2  0  0.50       -23.9615   2.0000                                         
     2  1  0.50        -9.0305   4.0000                                         
     3  2  1.50        -9.5241   0.0000                                         
   Description                                                                  
     l       E           TYP  RCUT    TYP  RCUT                                 
     0    -23.9615318     23  1.200                                             
     0     -9.5240782     23  1.200                                             
     1     -9.0304911     23  1.520                                             
     1      8.1634956     23  1.520                                             
     2     -9.5240782      7  1.500                                             
  local pseudopotential read in
  partial core-charges read in
  partial kinetic energy density read in
  kinetic energy density of atom read in
  atomic valenz-charges read in
  non local Contribution for L=           0  read in
    real space projection operators read in
  non local Contribution for L=           0  read in
    real space projection operators read in
  non local Contribution for L=           1  read in
    real space projection operators read in
  non local Contribution for L=           1  read in
    real space projection operators read in
    PAW grid and wavefunctions read in
 
   number of l-projection  operators is LMAX  =           4
   number of lm-projection operators is LMMAX =           8
 
 POTCAR:    PAW_PBE H 15Jun2001                   
   VRHFIN =H: ultrasoft test                                                    
   LEXCH  = PE                                                                  
   EATOM  =    12.4884 eV,    0.9179 Ry                                         
                                                                                
   TITEL  = PAW_PBE H 15Jun2001                                                 
   LULTRA =        F    use ultrasoft PP ?                                      
   IUNSCR =        0    unscreen: 0-lin 1-nonlin 2-no                           
   RPACOR =    0.000    partial core radius                                     
   POMASS =    1.000; ZVAL   =    1.000    mass and valenz                      
   RCORE  =    1.100    outmost cutoff radius                                   
   RWIGS  =    0.700; RWIGS  =    0.370    wigner-seitz radius (au A)           
   ENMAX  =  250.000; ENMIN  =  200.000 eV                                      
   RCLOC  =    0.701    cutoff for local pot                                    
   LCOR   =        T    correct aug charges                                     
   LPAW   =        T    paw PP                                                  
   EAUG   =  400.000                                                            
   RMAX   =    1.123    core radius for proj-oper                               
   RAUG   =    1.200    factor for augmentation sphere                          
   RDEP   =    1.112    radius for radial grids                                 
   RDEPT  =    0.926    core radius for aug-charge                              
                                                                                
   Atomic configuration                                                         
    2 entries                                                                   
     n  l   j            E        occ.                                          
     1  0  0.50        -6.4927   1.0000                                         
     2  1  0.50        -3.4015   0.0000                                         
   Description                                                                  
     l       E           TYP  RCUT    TYP  RCUT                                 
     0     -6.4927494     23  1.100                                             
     0      6.8029130     23  1.100                                             
     1     -4.0817478     23  1.100                                             
  local pseudopotential read in
  atomic valenz-charges read in
  non local Contribution for L=           0  read in
    real space projection operators read in
  non local Contribution for L=           0  read in
    real space projection operators read in
  non local Contribution for L=           1  read in
    real space projection operators read in
    PAW grid and wavefunctions read in
 
   number of l-projection  operators is LMAX  =           3
   number of lm-projection operators is LMMAX =           5
 
 Optimization of the real space projectors (new method)

 maximal supplied QI-value         = 18.90
 optimisation between [QCUT,QGAM] = [ 11.53, 23.24] = [ 37.21,151.29] Ry 
 Optimized for a Real-space Cutoff    1.28 Angstroem

   l    n(q)    QCUT    max X(q) W(low)/X(q) W(high)/X(q)  e(spline) 
   0      9    11.527    28.265    0.62E-04    0.53E-04    0.73E-07
   0      9    11.527    10.429    0.52E-04    0.40E-04    0.58E-07
   1      8    11.527    13.073    0.98E-04    0.18E-03    0.86E-07
   1      8    11.527     9.625    0.79E-04    0.15E-03    0.74E-07
   2      8    11.527     4.652    0.22E-03    0.72E-04    0.47E-07
 Optimization of the real space projectors (new method)

 maximal supplied QI-value         = 24.76
 optimisation between [QCUT,QGAM] = [ 11.64, 23.27] = [ 37.91,151.63] Ry 
 Optimized for a Real-space Cutoff    1.14 Angstroem

   l    n(q)    QCUT    max X(q) W(low)/X(q) W(high)/X(q)  e(spline) 
   0      8    11.635    20.381    0.10E-03    0.33E-03    0.24E-06
   0      8    11.635    15.268    0.11E-03    0.35E-03    0.26E-06
   1      7    11.635     5.964    0.24E-03    0.31E-03    0.30E-06
   1      7    11.635     5.382    0.22E-03    0.25E-03    0.26E-06
 Optimization of the real space projectors (new method)

 maximal supplied QI-value         = 34.20
 optimisation between [QCUT,QGAM] = [ 11.63, 23.26] = [ 37.87,151.49] Ry 
 Optimized for a Real-space Cutoff    1.21 Angstroem

   l    n(q)    QCUT    max X(q) W(low)/X(q) W(high)/X(q)  e(spline) 
   0      8    11.629    19.460    0.17E-03    0.34E-03    0.21E-06
   0      8    11.629    12.209    0.16E-03    0.33E-03    0.21E-06
   1      8    11.629     4.655    0.18E-03    0.16E-03    0.26E-06

 ----------------------------------------------------------------------------- 
|                                                                             |
|  ADVICE TO THIS USER RUNNING 'VASP/VAMP'   (HEAR YOUR MASTER'S VOICE ...):  |
|                                                                             |
|      You enforced a specific xc-type in the INCAR file,                     |
|      a different type was found on the POTCAR file                          |
|          I HOPE YOU KNOW, WHAT YOU ARE  DOING                               |
|                                                                             |
 ----------------------------------------------------------------------------- 

  PAW_PBE Mg 13Apr2007                  :
 energy of atom  1       EATOM=  -23.0369
 kinetic energy error for atom=    0.0000 (will be added to EATOM!!)
  PAW_PBE O 08Apr2002                   :
 energy of atom  2       EATOM= -432.3788
 kinetic energy error for atom=    0.0208 (will be added to EATOM!!)
  PAW_PBE H 15Jun2001                   :
 energy of atom  3       EATOM=  -12.4884
 kinetic energy error for atom=    0.0014 (will be added to EATOM!!)
 
 
 POSCAR: Mg   O    H                             
  positions in direct lattice
  velocities in cartesian coordinates
 exchange correlation table for  LEXCH =       42
   RHO(1)=    0.500       N(1)  =     2000
   RHO(2)=  100.500       N(2)  =     4000

 VTST: version 3.2, (02/03/18)

 CHAIN: initializing optimizer
 
 OPT: Using VASP Dynamics algorithm
 CHAIN: Read ICHAIN            0
 
 POSCAR: Mg   O    H                             
  positions in direct lattice
  velocities in cartesian coordinates
 


--------------------------------------------------------------------------------------------------------


 ion  position               nearest neighbor table
   1  0.000  0.000  0.000-   7 3.19  25 3.19  19 3.19  10 3.19   4 3.19  13 3.19  44 3.19  32 3.19
                            28 3.19
   2  0.999  0.998  0.158-  33 3.10  29 3.11  44 3.15  32 3.15  28 3.16  26 3.17  20 3.17   8 3.18
                            14 3.18  11 3.19   5 3.20  45 3.23
   3  0.003  0.001  0.331-  46 2.12  15 3.11  27 3.20   9 3.21  12 3.21  21 3.25   6 3.27  45 3.50
                            29 3.59  33 3.61
   4  0.000  0.333  0.000-  22 3.19  13 3.19  19 3.19  16 3.19   1 3.19   7 3.19  40 3.19  30 3.19
                            28 3.19
   5  1.000  0.333  0.157-  30 3.13  40 3.13  28 3.13  29 3.14  41 3.15  17 3.17  31 3.18   8 3.18
                            14 3.18  23 3.19   2 3.20  20 3.20
   6  0.993  0.332  0.312-  31 3.09  41 3.10  21 3.11  29 3.12  24 3.13  15 3.18   9 3.19  18 3.25
                             3 3.27
   7  0.000  0.667  0.000-   1 3.19  10 3.19  25 3.19  16 3.19  22 3.19   4 3.19  42 3.19  32 3.19
                            30 3.19
   8  0.998  0.666  0.158-  33 3.12  42 3.14  30 3.15  32 3.15  26 3.16  23 3.17  31 3.17   2 3.18
                             5 3.18  17 3.19  11 3.19  43 3.31
   9  0.005  0.671  0.315-  43 3.08  18 3.08  12 3.11  31 3.15  33 3.15   6 3.19   3 3.21  27 3.23
                            24 3.35
  10  0.333  0.000  0.000-  16 3.19   7 3.19  19 3.19   1 3.19  22 3.19  13 3.19  32 3.19  34 3.19
                            38 3.19
  11  0.332  0.998  0.157-  32 3.12  38 3.13  34 3.14  33 3.15  35 3.16  17 3.17  14 3.18   8 3.19
                             2 3.19  39 3.19  20 3.20  23 3.20
  12  0.328  0.996  0.309-  33 3.04  39 3.05  35 3.06   9 3.11  15 3.15  18 3.16  24 3.17   3 3.21
                            21 3.23
  13  0.333  0.333  0.000-  22 3.19   4 3.19  10 3.19   1 3.19  25 3.19  16 3.19  28 3.19  36 3.19
                            34 3.19
  14  0.332  0.331  0.157-  28 3.11  34 3.11  36 3.13  37 3.14  35 3.15  29 3.18  11 3.18  23 3.18
                             2 3.18   5 3.18  17 3.20  26 3.21
  15  0.320  0.321  0.311-  61 1.91  29 3.03  35 3.08   3 3.11  12 3.15  37 3.16   6 3.18  24 3.32
                            27 3.36  18 3.38
  16  0.333  0.667  0.000-  10 3.19  19 3.19   7 3.19  25 3.19   4 3.19  13 3.19  38 3.19  30 3.19
                            36 3.19
  17  0.332  0.666  0.158-  37 3.11  39 3.12  31 3.14  30 3.14  38 3.15  36 3.15  11 3.17   5 3.17
                            20 3.18   8 3.19  14 3.20  26 3.21
  18  0.322  0.670  0.330-  61 1.93  51 2.09   9 3.08  12 3.16   6 3.25  21 3.31  27 3.32  15 3.38
                            31 3.51  39 3.54
  19  0.667  0.000  0.000-  25 3.19  16 3.19   1 3.19  10 3.19   4 3.19  22 3.19  38 3.19  44 3.19
                            40 3.19
  20  0.666  0.998  0.158-  41 3.12  44 3.13  38 3.14  40 3.15  39 3.15   2 3.17  26 3.18  17 3.18
                            11 3.20   5 3.20  23 3.21  45 3.28
  21  0.670  0.004  0.313-  45 3.05  24 3.06   6 3.11  41 3.12  39 3.14  27 3.23  12 3.23   3 3.25
                            18 3.31
  22  0.667  0.333  0.000-  13 3.19   4 3.19  10 3.19  25 3.19   7 3.19  19 3.19  34 3.19  42 3.19
                            40 3.19
  23  0.666  0.334  0.159-  41 3.10  35 3.10  42 3.16  26 3.16  34 3.16   8 3.17  40 3.17  14 3.18
                             5 3.19  11 3.20  20 3.21  43 3.23
  24  0.661  0.317  0.326-  49 2.12  21 3.06   6 3.13  12 3.17  15 3.32  27 3.32   9 3.35  43 3.36
                            41 3.44  35 3.45
  25  0.667  0.667  0.000-   1 3.19  19 3.19   7 3.19  16 3.19  22 3.19  13 3.19  36 3.19  42 3.19
                            44 3.19
  26  0.668  0.666  0.159-  37 3.09  42 3.15   8 3.16  23 3.16   2 3.17  44 3.17  36 3.17  20 3.18
                            45 3.20  14 3.21  17 3.21  43 3.26
  27  0.668  0.668  0.326-  61 1.96  50 2.01   3 3.20   9 3.23  21 3.23  18 3.32  43 3.32  24 3.32
                            45 3.33  15 3.36  37 3.52
  28  0.111  0.222  0.080-  14 3.11   5 3.13   2 3.16  44 3.19  32 3.19  40 3.19  34 3.19  36 3.19
                            30 3.19   1 3.19  13 3.19   4 3.19
  29  0.106  0.218  0.236-  15 3.03   2 3.11   6 3.12   5 3.14  33 3.17  45 3.18  14 3.18  41 3.18
                            31 3.20  35 3.22  37 3.22   3 3.59
  30  0.111  0.556  0.080-   5 3.13  17 3.14   8 3.15  32 3.19  42 3.19  38 3.19  40 3.19  36 3.19
                            28 3.19  16 3.19   7 3.19   4 3.19
  31  0.114  0.557  0.237-   6 3.09  39 3.13  17 3.14   9 3.15  37 3.16   8 3.17   5 3.18  33 3.19
                            29 3.20  41 3.23  43 3.25  18 3.51
  32  0.111  0.889  0.080-  11 3.12   8 3.15   2 3.15  28 3.19  34 3.19  44 3.19  30 3.19  42 3.19
                            38 3.19  10 3.19   1 3.19   7 3.19
  33  0.107  0.887  0.235-  12 3.04   2 3.10   8 3.12  45 3.13  11 3.15   9 3.15  29 3.17  31 3.19
                            43 3.22  35 3.23  39 3.24   3 3.61
  34  0.444  0.222  0.080-  14 3.11  11 3.14  23 3.16  38 3.19  40 3.19  32 3.19  42 3.19  28 3.19
                            36 3.19  22 3.19  10 3.19  13 3.19
  35  0.446  0.224  0.236-  12 3.06  15 3.08  23 3.10  43 3.12  14 3.15  41 3.16  11 3.16  37 3.17
                            29 3.22  33 3.23  39 3.25  24 3.45
  36  0.444  0.556  0.080-  14 3.13  17 3.15  26 3.17  42 3.19  38 3.19  44 3.19  30 3.19  28 3.19
                            34 3.19  25 3.19  13 3.19  16 3.19
  37  0.444  0.554  0.235-  26 3.09  17 3.11  14 3.14  39 3.14  15 3.16  43 3.16  31 3.16  35 3.17
                            45 3.17  29 3.22  27 3.52
  38  0.444  0.889  0.080-  11 3.13  20 3.14  17 3.15  40 3.19  34 3.19  44 3.19  36 3.19  30 3.19
                            32 3.19  19 3.19  16 3.19  10 3.19
  39  0.444  0.882  0.236-  12 3.05  17 3.12  31 3.13  37 3.14  21 3.14  20 3.15  11 3.19  45 3.19
                            41 3.19  33 3.24  35 3.25  18 3.54
  40  0.778  0.222  0.080-   5 3.13  20 3.15  23 3.17  38 3.19  34 3.19  44 3.19  28 3.19  30 3.19
                            42 3.19   4 3.19  19 3.19  22 3.19
  41  0.774  0.220  0.235-  23 3.10   6 3.10  21 3.12  20 3.12   5 3.15  35 3.16  43 3.17  29 3.18
                            39 3.19  31 3.23  45 3.24  24 3.44
  42  0.778  0.556  0.080-   8 3.14  26 3.15  23 3.16  36 3.19  44 3.19  30 3.19  32 3.19  34 3.19
                            40 3.19  25 3.19   7 3.19  22 3.19
  43  0.771  0.549  0.242-   9 3.08  35 3.12  45 3.16  37 3.16  41 3.17  33 3.22  23 3.23  31 3.25
                            26 3.26   8 3.31  27 3.32  24 3.36
  44  0.778  0.889  0.080-  20 3.13   2 3.15  26 3.17  28 3.19  40 3.19  42 3.19  32 3.19  38 3.19
                            36 3.19   1 3.19  19 3.19  25 3.19
  45  0.778  0.883  0.240-  21 3.05  33 3.13  43 3.16  37 3.17  29 3.18  39 3.19  26 3.20   2 3.23
                            41 3.24  20 3.28  27 3.33   3 3.50
  46  0.004  0.997  0.396-  53 0.99  52 0.99   3 2.12
  47  0.292  0.984  0.414-  54 0.98  55 0.99
  48  0.895  0.214  0.416-  56 0.98  57 1.00
  49  0.621  0.340  0.389-  59 0.98  58 1.05  24 2.12
  50  0.641  0.621  0.387-  60 0.98  27 2.01
  51  0.387  0.686  0.392-  62 0.98  63 1.01  18 2.09
  52  0.975  0.073  0.409-  46 0.99
  53  0.101  0.006  0.409-  46 0.99
  54  0.388  0.089  0.408-  47 0.98
  55  0.264  0.930  0.387-  47 0.99
  56  0.989  0.322  0.417-  48 0.98
  57  0.857  0.201  0.387-  48 1.00
  58  0.628  0.453  0.392-  49 1.05
  59  0.696  0.333  0.408-  49 0.98
  60  0.740  0.696  0.401-  50 0.98
  61  0.432  0.548  0.323-  15 1.91  18 1.93  27 1.96
  62  0.397  0.776  0.409-  51 0.98
  63  0.483  0.672  0.397-  51 1.01
 
  LATTYP: Found a hexagonal cell.
 ALAT       =     9.5557527542
 C/A-ratio  =     3.4141837076
  
  Lattice vectors:
  
 A1 = (   9.5557527542,   0.0000000000,   0.0000000000)
 A2 = (  -4.7778763771,   8.2755246374,   0.0000000000)
 A3 = (   0.0000000000,   0.0000000000,  32.6250953674)


Analysis of symmetry for initial positions (statically):
=====================================================================
 Subroutine PRICEL returns:
 Original cell was already a primitive cell.
 

 Routine SETGRP: Setting up the symmetry group for a 
 hexagonal supercell.


 Subroutine GETGRP returns: Found  1 space group operations
 (whereof  1 operations were pure point group operations)
 out of a pool of 24 trial point group operations.


The static configuration has the point symmetry C_1 .


Analysis of symmetry for dynamics (positions and initial velocities):
=====================================================================
 Subroutine PRICEL returns:
 Original cell was already a primitive cell.
 

 Routine SETGRP: Setting up the symmetry group for a 
 hexagonal supercell.


 Subroutine GETGRP returns: Found  1 space group operations
 (whereof  1 operations were pure point group operations)
 out of a pool of 24 trial point group operations.


The dynamic configuration has the point symmetry C_1 .


Analysis of constrained symmetry for selective dynamics:
=====================================================================
 Subroutine PRICEL returns:
 Original cell was already a primitive cell.
 

 Routine SETGRP: Setting up the symmetry group for a 
 hexagonal supercell.


 Subroutine GETGRP returns: Found  1 space group operations
 (whereof  1 operations were pure point group operations)
 out of a pool of 24 trial point group operations.


The constrained configuration has the point symmetry C_1 .


 Subroutine INISYM returns: Found  1 space group operations
 (whereof  1 operations are pure point group operations),
 and found     1 'primitive' translations

 
 
 KPOINTS: Auto                                    

Automatic generation of k-mesh.
Space group operators:
 irot       det(A)        alpha          n_x          n_y          n_z        tau_x        tau_y        tau_z
    1     1.000000     0.000000     1.000000     0.000000     0.000000     0.000000     0.000000     0.000000
 
 Subroutine IBZKPT returns following result:
 ===========================================
 
 Found      5 irreducible k-points:
 
 Following reciprocal coordinates:
            Coordinates               Weight
  0.000000  0.000000  0.000000      1.000000
  0.333333 -0.000000  0.000000      2.000000
  0.000000  0.333333  0.000000      2.000000
  0.333333  0.333333  0.000000      2.000000
 -0.333333  0.333333  0.000000      2.000000
 
 Following cartesian coordinates:
            Coordinates               Weight
  0.000000  0.000000  0.000000      1.000000
  0.034883  0.020140  0.000000      2.000000
  0.000000  0.040279  0.000000      2.000000
  0.034883  0.060419  0.000000      2.000000
 -0.034883  0.020140  0.000000      2.000000
 
 TETIRR: Found     24 inequivalent tetrahedra from       54


--------------------------------------------------------------------------------------------------------




 Dimension of arrays:
   k-points           NKPTS =      5   k-points in BZ     NKDIM =      5   number of bands    NBANDS=    102
   number of dos      NEDOS =    301   number of ions     NIONS =     63
   non local maximal  LDIM  =      5   non local SUM 2l+1 LMDIM =     13
   total plane-waves  NPLWV = ******
   max r-space proj   IRMAX =   4509   max aug-charges    IRDMAX=  21536
   dimension x,y,z NGX =    72 NGY =   72 NGZ =  250
   dimension x,y,z NGXF=   144 NGYF=  144 NGZF=  500
   support grid    NGXF=   144 NGYF=  144 NGZF=  500
   ions per type =              45   6  12
   NGX,Y,Z   is equivalent  to a cutoff of  12.53, 12.53, 12.74 a.u.
   NGXF,Y,Z  is equivalent  to a cutoff of  25.05, 25.05, 25.48 a.u.

 SYSTEM =  Mg_slab_in_a_box                        
 POSCAR =  Mg   O    H                             

 Startparameter for this run:
   NWRITE =      2    write-flag & timer
   PREC   = accura    normal or accurate (medium, high low for compatibility)
   ISTART =      0    job   : 0-new  1-cont  2-samecut
   ICHARG =      2    charge: 1-file 2-atom 10-const
   ISPIN  =      1    spin polarized calculation?
   LNONCOLLINEAR =      F non collinear calculations
   LSORBIT =      F    spin-orbit coupling
   INIWAV =      1    electr: 0-lowe 1-rand  2-diag
   LASPH  =      T    aspherical Exc in radial PAW
   METAGGA=      F    non-selfconsistent MetaGGA calc.

 Electronic Relaxation 1
   ENCUT  =  520.0 eV  38.22 Ry    6.18 a.u.  17.77 17.77 60.66*2*pi/ulx,y,z
   ENINI  =  520.0     initial cutoff
   ENAUG  =  605.4 eV  augmentation charge cutoff
   NELM   =    300;   NELMIN=  6; NELMDL=-12     # of ELM steps 
   EDIFF  = 0.5E-05   stopping-criterion for ELM
   LREAL  =      T    real-space projection
   NLSPLINE    = F    spline interpolate recip. space projectors
   LCOMPAT=      F    compatible to vasp.4.4
   GGA_COMPAT  = T    GGA compatible to vasp.4.4-vasp.4.6
   LMAXPAW     = -100 max onsite density
   LMAXMIX     =    2 max onsite mixed and CHGCAR
   VOSKOWN=      0    Vosko Wilk Nusair interpolation
   ROPT   =   -0.00025  -0.00025  -0.00025
 Ionic relaxation
   EDIFFG = 0.5E-04   stopping-criterion for IOM
   NSW    =      0    number of steps for IOM
   NBLOCK =      1;   KBLOCK =      1    inner block; outer block 
   IBRION =     -1    ionic relax: 0-MD 1-quasi-New 2-CG
   NFREE  =      0    steps in history (QN), initial steepest desc. (CG)
   ISIF   =      2    stress and relaxation
   IWAVPR =     10    prediction:  0-non 1-charg 2-wave 3-comb
   ISYM   =      2    0-nonsym 1-usesym 2-fastsym
   LCORR  =      T    Harris-Foulkes like correction to forces

   POTIM  = 0.5000    time-step for ionic-motion
   TEIN   =    0.0    initial temperature
   TEBEG  =    0.0;   TEEND  =   0.0 temperature during run
   SMASS  =  -3.00    Nose mass-parameter (am)
   estimated Nose-frequenzy (Omega)   =  0.10E-29 period in steps =****** mass=  -0.209E-26a.u.
   SCALEE = 1.0000    scale energy and forces
   NPACO  =    256;   APACO  = 16.0  distance and # of slots for P.C.
   PSTRESS=    0.0 pullay stress

  Mass of Ions in am
   POMASS =  24.30 16.00  1.00
  Ionic Valenz
   ZVAL   =   2.00  6.00  1.00
  Atomic Wigner-Seitz radii
   RWIGS  =  -1.00 -1.00 -1.00
  virtual crystal weights 
   VCA    =   1.00  1.00  1.00
   NELECT =     138.0000    total number of electrons
   NUPDOWN=      -1.0000    fix difference up-down

 DOS related values:
   EMIN   =  10.00;   EMAX   =-10.00  energy-range for DOS
   EFERMI =   0.00
   ISMEAR =    -5;   SIGMA  =   0.20  broadening in eV -4-tet -1-fermi 0-gaus

 Electronic relaxation 2 (details)
   IALGO  =     48    algorithm
   LDIAG  =      T    sub-space diagonalisation (order eigenvalues)
   LSUBROT=      F    optimize rotation matrix (better conditioning)
   TURBO    =      0    0=normal 1=particle mesh
   IRESTART =      0    0=no restart 2=restart with 2 vectors
   NREBOOT  =      0    no. of reboots
   NMIN     =      0    reboot dimension
   EREF     =   0.00    reference energy to select bands
   IMIX   =      4    mixing-type and parameters
     AMIX     =   0.40;   BMIX     =  1.00
     AMIX_MAG =   1.60;   BMIX_MAG =  1.00
     AMIN     =   0.10
     WC   =   100.;   INIMIX=   1;  MIXPRE=   1;  MAXMIX= -45

 Intra band minimization:
   WEIMIN = 0.0000     energy-eigenvalue tresh-hold
   EBREAK =  0.12E-07  absolut break condition
   DEPER  =   0.30     relativ break condition  

   TIME   =   0.40     timestep for ELM

  volume/ion in A,a.u.               =      40.95       276.36
  Fermi-wavevector in a.u.,A,eV,Ry     =   0.616828  1.165635  5.176694  0.380476
  Thomas-Fermi vector in A             =   1.674695
 
 Write flags
   LWAVE        =      F    write WAVECAR
   LDOWNSAMPLE  =      F    k-point downsampling of WAVECAR
   LCHARG       =      T    write CHGCAR
   LVTOT        =      F    write LOCPOT, total local potential
   LVHAR        =      T    write LOCPOT, Hartree potential only
   LELF         =      F    write electronic localiz. function (ELF)
   LORBIT       =      0    0 simple, 1 ext, 2 COOP (PROOUT), +10 PAW based schemes


 Dipole corrections
   LMONO  =      F    monopole corrections only (constant potential shift)
   LDIPOL =      T    correct potential (dipole corrections)
   IDIPOL =      3    1-x, 2-y, 3-z, 4-all directions 
   EPSILON=  1.0000000 bulk dielectric constant

 Exchange correlation treatment:
   GGA     =    BO    GGA type
   LEXCH   =    42    internal setting for exchange type
   VOSKOWN=      0    Vosko Wilk Nusair interpolation
   LHFCALC =     F    Hartree Fock is set to
   LHFONE  =     F    Hartree Fock one center treatment
   AEXX    =    0.0000 exact exchange contribution

 vdW DFT:
   LUSE_VDW   =     T    switch on vdW DFT
   Zab_VDW    =-.8491    correlation parameter
   PARAM1     =0.1833
   PARAM2     =0.2200
   PARAM3     =0.0000
   -- rVV10 --
   BPARAM     = 6.3000
   CPARAM     = 0.0093

 Linear response parameters
   LEPSILON=     F    determine dielectric tensor
   LRPA    =     F    only Hartree local field effects (RPA)
   LNABLA  =     F    use nabla operator in PAW spheres
   LVEL    =     F    velocity operator in full k-point grid
   LINTERFAST=   F  fast interpolation
   KINTER  =     0    interpolate to denser k-point grid
   CSHIFT  =0.1000    complex shift for real part using Kramers Kronig
   OMEGAMAX=  -1.0    maximum frequency
   DEG_THRESHOLD= 0.2000000E-02 threshold for treating states as degnerate
   RTIME   =   -0.100 relaxation time in fs
  (WPLASMAI=    0.000 imaginary part of plasma frequency in eV, 0.658/RTIME)
   DFIELD  = 0.0000000 0.0000000 0.0000000 field for delta impulse in time
 
 Orbital magnetization related:
   ORBITALMAG=     F  switch on orbital magnetization
   LCHIMAG   =     F  perturbation theory with respect to B field
   DQ        =  0.001000  dq finite difference perturbation B field
   LLRAUG    =     F  two centre corrections for induced B field



--------------------------------------------------------------------------------------------------------


 Static calculation
 charge density and potential will be updated during run
 non-spin polarized calculation
 RMM-DIIS sequential band-by-band
 perform sub-space diagonalisation
    before iterative eigenvector-optimisation
 modified Broyden-mixing scheme, WC =      100.0
 initial mixing is a Kerker type mixing with AMIX =  0.4000 and BMIX =      1.0000
 Hartree-type preconditioning will be used
 using additional bands           33
 real space projection scheme for non local part
 use partial core corrections
 calculate Harris-corrections to forces 
   (improved forces if not selfconsistent)
 use gradient corrections 
 use of overlap-Matrix (Vanderbilt PP)
 Fermi weights with tetrahedron method with Bloechl corrections


--------------------------------------------------------------------------------------------------------


  energy-cutoff  :      520.00
  volume of cell :     2579.96
      direct lattice vectors                 reciprocal lattice vectors
     9.555752754  0.000000000  0.000000000     0.104649003  0.060419130  0.000000000
    -4.777876377  8.275524637  0.000000000     0.000000000  0.120838260  0.000000000
     0.000000000  0.000000000 32.625095367     0.000000000  0.000000000  0.030651251

  length of vectors
     9.555752754  9.555752754 32.625095367     0.120838260  0.120838260  0.030651251


 
 k-points in units of 2pi/SCALE and weight: Auto                                    
   0.00000000  0.00000000  0.00000000       0.111
   0.03488300  0.02013971  0.00000000       0.222
   0.00000000  0.04027942  0.00000000       0.222
   0.03488300  0.06041913  0.00000000       0.222
  -0.03488300  0.02013971  0.00000000       0.222
 
 k-points in reciprocal lattice and weights: Auto                                    
   0.00000000  0.00000000  0.00000000       0.111
   0.33333333 -0.00000000  0.00000000       0.222
   0.00000000  0.33333333  0.00000000       0.222
   0.33333333  0.33333333  0.00000000       0.222
  -0.33333333  0.33333333  0.00000000       0.222
 
 position of ions in fractional coordinates (direct lattice) 
   0.00000000  0.00000000  0.00000000
   0.99861982  0.99831033  0.15836701
   0.00312480  0.00115967  0.33098091
   0.00000001  0.33333336  0.00000000
   0.99996685  0.33339629  0.15746557
   0.99279395  0.33153839  0.31214850
   0.00000002  0.66666672  0.00000000
   0.99822495  0.66556813  0.15798830
   0.00485366  0.67058021  0.31489033
   0.33333334  0.00000000  0.00000000
   0.33213146  0.99839995  0.15742347
   0.32847522  0.99619245  0.30943942
   0.33333335  0.33333336  0.00000000
   0.33190227  0.33102079  0.15689821
   0.32015367  0.32119328  0.31116668
   0.33333336  0.66666672  0.00000000
   0.33179074  0.66605395  0.15803771
   0.32242851  0.67010928  0.33036772
   0.66666668  0.00000000  0.00000000
   0.66622256  0.99784740  0.15774255
   0.67010700  0.00399891  0.31341076
   0.66666668  0.33333336  0.00000000
   0.66645053  0.33436078  0.15879495
   0.66120910  0.31678261  0.32594772
   0.66666670  0.66666672  0.00000000
   0.66810940  0.66610600  0.15873658
   0.66804177  0.66791688  0.32629581
   0.11111113  0.22222222  0.07982145
   0.10624292  0.21823448  0.23569907
   0.11111114  0.55555561  0.07982145
   0.11426200  0.55679499  0.23676903
   0.11111116  0.88888894  0.07982145
   0.10687656  0.88663261  0.23528040
   0.44444450  0.22222222  0.07982145
   0.44565761  0.22377444  0.23568292
   0.44444450  0.55555561  0.07982145
   0.44388809  0.55414052  0.23459192
   0.44444451  0.88888894  0.07982145
   0.44399152  0.88245864  0.23623778
   0.77777779  0.22222222  0.07982145
   0.77442801  0.22000575  0.23508586
   0.77777781  0.55555561  0.07982145
   0.77101570  0.54934062  0.24156651
   0.77777784  0.88888894  0.07982145
   0.77779234  0.88291224  0.24009168
   0.00386029  0.99741781  0.39586974
   0.29182850  0.98409830  0.41391812
   0.89485882  0.21356626  0.41636499
   0.62088088  0.34006321  0.38870450
   0.64095246  0.62116210  0.38675248
   0.38710451  0.68622915  0.39224387
   0.97495501  0.07273925  0.40939291
   0.10146141  0.00618148  0.40902767
   0.38795329  0.08941476  0.40828078
   0.26443652  0.93034602  0.38674370
   0.98943282  0.32234839  0.41703654
   0.85748081  0.20141081  0.38739554
   0.62820667  0.45277870  0.39220786
   0.69562233  0.33328608  0.40802136
   0.73958891  0.69559261  0.40148712
   0.43169401  0.54754869  0.32319416
   0.39690153  0.77634290  0.40865566
   0.48327718  0.67162747  0.39713480
 
 position of ions in cartesian coordinates  (Angst):
   0.00000000  0.00000000  0.00000000
   4.77276074  8.26154172  5.16673889
   0.02431907  0.00959688 10.79828363
  -1.59262550  2.75850844  0.00000000
   7.96250973  2.75902918  5.13732925
   7.90284404  2.74365411 10.18387458
  -3.18525100  5.51701689  0.00000000
   6.35878856  5.50792548  5.15438342
  -3.15756900  5.54940307 10.27332716
   3.18525100  0.00000000  0.00000000
  -1.59646547  8.26228341  5.13595569
  -1.62085634  8.24401516 10.09549072
   1.59262550  2.75850844  0.00000000
   1.58999963  2.73937072  5.11881912
   1.52468757  2.65804289 10.15184274
  -0.00000001  5.51701689  0.00000000
  -0.01181318  5.51194588  5.15599528
  -0.12065218  5.54550583 10.77827829
   6.37050200  0.00000000  0.00000000
   1.59866655  8.25771075  5.14636580
   6.38427049  0.03309306 10.22505577
   4.77787638  2.75850844  0.00000000
   4.77090203  2.76701085  5.18070035
   4.80480252  2.62154228 10.63407543
   3.18525100  5.51701689  0.00000000
   3.20171612  5.51237663  5.17879611
   3.19241775  5.52736260 10.64543178
   0.00000017  1.83900547  2.60418248
  -0.02746626  1.80600482  7.68970454
  -1.59262550  4.59751415  2.60418248
  -1.56843825  4.60777067  7.72461212
  -3.18525076  7.35602236  2.60418248
  -3.21493498  7.33735000  7.67604541
   3.18525147  1.83900547  2.60418248
   3.18942739  1.85185086  7.68917771
   1.59262574  4.59751415  2.60418248
   1.59406994  4.58580353  7.65358362
   0.00000039  7.35602236  2.60418248
   0.02639486  7.30280825  7.70728000
   6.37050200  1.83900547  2.60418248
   6.34908234  1.82066298  7.66969856
   4.77787638  4.59751415  2.60418248
   4.74295379  4.54608186  7.88113027
   3.18525124  7.35602236  2.60418248
   3.21394575  7.30656203  7.83301395
  -4.72865105  8.25415564 12.91528789
  -1.91325904  8.14392970 13.50411819
   7.53065639  1.76737286 13.58394750
   4.30820417  2.81420147 12.68152137
   3.15694754  5.14044223 12.61783668
   0.42035696  5.67890621 12.79699356
   8.96888992  0.60195546 13.35648281
   0.94000581  0.05115501 13.34456667
   3.27997302  0.73995403 13.32019945
  -1.91818825  7.69910139 12.61755014
   7.91463458  2.66760206 13.60585684
   7.23155863  1.66678012 12.63881650
   3.83966695  3.74698130 12.79581880
   5.05479535  2.75811715 13.31173578
   3.74387330  5.75639377 13.09855545
   1.50904128  4.53125270 10.54424043
   0.08342242  6.42464484 13.33243000
   1.40912422  5.55806970 12.95656070
 


--------------------------------------------------------------------------------------------------------


 k-point  1 :   0.0000 0.0000 0.0000  plane waves:   69403
 k-point  2 :   0.3333-0.0000 0.0000  plane waves:   69509
 k-point  3 :   0.0000 0.3333 0.0000  plane waves:   69509
 k-point  4 :   0.3333 0.3333 0.0000  plane waves:   69474
 k-point  5 :  -0.3333 0.3333 0.0000  plane waves:   69509

 maximum and minimum number of plane-waves per node :      2924     2870

 maximum number of plane-waves:     69509
 maximum index in each direction: 
   IXMAX=   18   IYMAX=   17   IZMAX=   60
   IXMIN=  -18   IYMIN=  -18   IZMIN=  -60


 real space projection operators:
  total allocation   :      22584.81 KBytes
  max/ min on nodes  :       1313.45        530.40


 parallel 3D FFT for wavefunctions:
    minimum data exchange during FFTs selected (reduces bandwidth)
 parallel 3D FFT for charge:
    minimum data exchange during FFTs selected (reduces bandwidth)


 total amount of memory used by VASP MPI-rank0    62210. kBytes
=======================================================================

   base      :      30000. kBytes
   nonlr-proj:       6307. kBytes
   fftplans  :       6459. kBytes
   grid      :      11407. kBytes
   one-center:         24. kBytes
   wavefun   :       8013. kBytes
 
     INWAV:  cpu time    0.0001: real time    0.0006
 Broyden mixing: mesh for mixing (old mesh)
   NGX = 35   NGY = 35   NGZ =121
  (NGX  =144   NGY  =144   NGZ  =500)
  gives a total of 148225 points

 initial charge density was supplied:
 charge density of overlapping atoms calculated
 number of electron     138.0000000 magnetization 
 keeping initial charge density in first step


--------------------------------------------------------------------------------------------------------


 Maximum index for non-local projection operator          296
 Maximum index for augmentation-charges          837 (set IRDMAX)


--------------------------------------------------------------------------------------------------------


 First call to EWALD:  gamma=   0.129
 Maximum number of real-space cells 4x 4x 1
 Maximum number of reciprocal cells 2x 2x 6

    FEWALD:  cpu time    0.0024: real time    0.0024


--------------------------------------- Iteration      1(   1)  ---------------------------------------


vdW kernel read from vdw_kernel.bindat
  0.0000  0.2424  0.5071  0.7962  1.1119  1.4567  1.8333  2.2446  2.6937  3.1842
  3.7199  4.3049  4.9438  5.6415  6.4036  7.2358  8.1446  9.1372 10.2212 11.4050
 12.6979 14.1099 15.6519 17.3360 19.1751 21.1837 23.3773 25.7729 28.3892 31.2465
 34.3669 37.7748 41.4965 45.5611 50.0000
 
    POTLOK:  cpu time    6.3014: real time    6.4449
    SETDIJ:  cpu time    0.1378: real time    0.1378
    EDDIAG:  cpu time    0.4806: real time    0.4814
  RMM-DIIS:  cpu time    1.0543: real time    1.0546
    ORTHCH:  cpu time    0.0704: real time    0.0704
 BZINTS: Fermi energy:  9.556567;138.000000 electrons
         Band energy: 213.561120;  BLOECHL correction: -0.162053
       DOS:  cpu time    0.0030: real time    0.0030
    --------------------------------------------
      LOOP:  cpu time    8.0475: real time    8.1922

 eigenvalue-minimisations  :   510
 total energy-change (2. order) : 0.1242348E+04  (-0.2793956E+04)
 number of electron     138.0000000 magnetization 
 augmentation part      138.0000000 magnetization 

 DIPCOR: dipole corrections for dipol
 direction  3 min pos   365,
 dipolmoment           0.000000      0.000000     -0.000309 electrons x Angstroem
 Tr[quadrupol]     -1915.995735

 energy correction for charged system         0.000000 eV
 dipol+quadrupol energy correction           -0.000000 eV
 added-field ion interaction          0.001371 eV  (added to PSCEN)


 Free energy of the ion-electron system (eV)
  ---------------------------------------------------
  alpha Z        PSCENC =        63.16243464
  Ewald energy   TEWEN  =     12993.42535575
  -Hartree energ DENC   =    -16220.83321129
  -exchange      EXHF   =         0.00000000
  -V(xc)+E(xc)   XCENC  =     -2051.10135395
  PAW double counting   =      5135.15659847    -2719.01140655
  entropy T*S    EENTRO =         0.00000000
  eigenvalues    EBANDS =       213.56111963
  atomic energy  EATOM  =      3827.98814510
  Solvation  Ediel_sol  =         0.00000000
  ---------------------------------------------------
  free energy    TOTEN  =      1242.34768182 eV

  energy without entropy =     1242.34768182  energy(sigma->0) =     1242.34768182


--------------------------------------------------------------------------------------------------------




--------------------------------------- Iteration      1(   2)  ---------------------------------------


    EDDIAG:  cpu time    0.4880: real time    0.5138
  RMM-DIIS:  cpu time    1.0488: real time    1.0490
    ORTHCH:  cpu time    0.0708: real time    0.0708
 BZINTS: Fermi energy:  2.104836;138.000000 electrons
         Band energy:-484.132879;  BLOECHL correction: -0.320079
       DOS:  cpu time    0.0035: real time    0.0035
    --------------------------------------------
      LOOP:  cpu time    1.6111: real time    1.6371

 eigenvalue-minimisations  :   510
 total energy-change (2. order) :-0.6976940E+03  (-0.7568077E+03)
 number of electron     138.0000000 magnetization 
 augmentation part      138.0000000 magnetization 

 DIPCOR: dipole corrections for dipol
 direction  3 min pos   365,
 dipolmoment           0.000000      0.000000     -0.000309 electrons x Angstroem
 Tr[quadrupol]     -1915.995735

 energy correction for charged system         0.000000 eV
 dipol+quadrupol energy correction           -0.000000 eV
 added-field ion interaction          0.001371 eV  (added to PSCEN)


 Free energy of the ion-electron system (eV)
  ---------------------------------------------------
  alpha Z        PSCENC =        63.16243464
  Ewald energy   TEWEN  =     12993.42535575
  -Hartree energ DENC   =    -16220.83321129
  -exchange      EXHF   =         0.00000000
  -V(xc)+E(xc)   XCENC  =     -2051.10135395
  PAW double counting   =      5135.15659847    -2719.01140655
  entropy T*S    EENTRO =         0.00000000
  eigenvalues    EBANDS =      -484.13287859
  atomic energy  EATOM  =      3827.98814510
  Solvation  Ediel_sol  =         0.00000000
  ---------------------------------------------------
  free energy    TOTEN  =       544.65368359 eV

  energy without entropy =      544.65368359  energy(sigma->0) =      544.65368359


--------------------------------------------------------------------------------------------------------




--------------------------------------- Iteration      1(   3)  ---------------------------------------


    EDDIAG:  cpu time    0.4884: real time    0.5105
  RMM-DIIS:  cpu time    1.0492: real time    1.0494
    ORTHCH:  cpu time    0.0718: real time    0.0718
 BZINTS: Fermi energy:  0.444536;138.000000 electrons
         Band energy:-718.793878;  BLOECHL correction: -0.324162
       DOS:  cpu time    0.0032: real time    0.0032
    --------------------------------------------
      LOOP:  cpu time    1.6126: real time    1.6350

 eigenvalue-minimisations  :   510
 total energy-change (2. order) :-0.2346610E+03  (-0.2987830E+03)
 number of electron     138.0000000 magnetization 
 augmentation part      138.0000000 magnetization 

 DIPCOR: dipole corrections for dipol
 direction  3 min pos   365,
 dipolmoment           0.000000      0.000000     -0.000309 electrons x Angstroem
 Tr[quadrupol]     -1915.995735

 energy correction for charged system         0.000000 eV
 dipol+quadrupol energy correction           -0.000000 eV
 added-field ion interaction          0.001371 eV  (added to PSCEN)


 Free energy of the ion-electron system (eV)
  ---------------------------------------------------
  alpha Z        PSCENC =        63.16243464
  Ewald energy   TEWEN  =     12993.42535575
  -Hartree energ DENC   =    -16220.83321129
  -exchange      EXHF   =         0.00000000
  -V(xc)+E(xc)   XCENC  =     -2051.10135395
  PAW double counting   =      5135.15659847    -2719.01140655
  entropy T*S    EENTRO =         0.00000000
  eigenvalues    EBANDS =      -718.79387800
  atomic energy  EATOM  =      3827.98814510
  Solvation  Ediel_sol  =         0.00000000
  ---------------------------------------------------
  free energy    TOTEN  =       309.99268419 eV

  energy without entropy =      309.99268419  energy(sigma->0) =      309.99268419


--------------------------------------------------------------------------------------------------------




--------------------------------------- Iteration      1(   4)  ---------------------------------------


    EDDIAG:  cpu time    0.4906: real time    0.5116
  RMM-DIIS:  cpu time    1.0495: real time    1.0497
    ORTHCH:  cpu time    0.0709: real time    0.0710
 BZINTS: Fermi energy: -0.674077;138.000000 electrons
         Band energy:-889.183571;  BLOECHL correction: -0.053539
       DOS:  cpu time    0.0031: real time    0.0031
    --------------------------------------------
      LOOP:  cpu time    1.6143: real time    1.6354

 eigenvalue-minimisations  :   510
 total energy-change (2. order) :-0.1703897E+03  (-0.1466862E+03)
 number of electron     138.0000000 magnetization 
 augmentation part      138.0000000 magnetization 

 DIPCOR: dipole corrections for dipol
 direction  3 min pos   365,
 dipolmoment           0.000000      0.000000     -0.000309 electrons x Angstroem
 Tr[quadrupol]     -1915.995735

 energy correction for charged system         0.000000 eV
 dipol+quadrupol energy correction           -0.000000 eV
 added-field ion interaction          0.001371 eV  (added to PSCEN)


 Free energy of the ion-electron system (eV)
  ---------------------------------------------------
  alpha Z        PSCENC =        63.16243464
  Ewald energy   TEWEN  =     12993.42535575
  -Hartree energ DENC   =    -16220.83321129
  -exchange      EXHF   =         0.00000000
  -V(xc)+E(xc)   XCENC  =     -2051.10135395
  PAW double counting   =      5135.15659847    -2719.01140655
  entropy T*S    EENTRO =         0.00000000
  eigenvalues    EBANDS =      -889.18357086
  atomic energy  EATOM  =      3827.98814510
  Solvation  Ediel_sol  =         0.00000000
  ---------------------------------------------------
  free energy    TOTEN  =       139.60299133 eV

  energy without entropy =      139.60299133  energy(sigma->0) =      139.60299133


--------------------------------------------------------------------------------------------------------




--------------------------------------- Iteration      1(   5)  ---------------------------------------


    EDDIAG:  cpu time    0.4875: real time    0.5139
  RMM-DIIS:  cpu time    1.0559: real time    1.0560
    ORTHCH:  cpu time    0.0707: real time    0.0707
 BZINTS: Fermi energy: -1.264046;138.000000 electrons
         Band energy:***********;  BLOECHL correction: -0.107465
       DOS:  cpu time    0.0033: real time    0.0033
    --------------------------------------------
      LOOP:  cpu time    1.6174: real time    1.6440

 eigenvalue-minimisations  :   510
 total energy-change (2. order) :-0.1169038E+03  (-0.9279062E+02)
 number of electron     138.0000000 magnetization 
 augmentation part      138.0000000 magnetization 

 DIPCOR: dipole corrections for dipol
 direction  3 min pos   365,
 dipolmoment           0.000000      0.000000     -0.000309 electrons x Angstroem
 Tr[quadrupol]     -1915.995735

 energy correction for charged system         0.000000 eV
 dipol+quadrupol energy correction           -0.000000 eV
 added-field ion interaction          0.001371 eV  (added to PSCEN)


 Free energy of the ion-electron system (eV)
  ---------------------------------------------------
  alpha Z        PSCENC =        63.16243464
  Ewald energy   TEWEN  =     12993.42535575
  -Hartree energ DENC   =    -16220.83321129
  -exchange      EXHF   =         0.00000000
  -V(xc)+E(xc)   XCENC  =     -2051.10135395
  PAW double counting   =      5135.15659847    -2719.01140655
  entropy T*S    EENTRO =         0.00000000
  eigenvalues    EBANDS =     -1006.08736364
  atomic energy  EATOM  =      3827.98814510
  Solvation  Ediel_sol  =         0.00000000
  ---------------------------------------------------
  free energy    TOTEN  =        22.69919855 eV

  energy without entropy =       22.69919855  energy(sigma->0) =       22.69919855


--------------------------------------------------------------------------------------------------------




--------------------------------------- Iteration      1(   6)  ---------------------------------------


    EDDIAG:  cpu time    0.4955: real time    0.5158
  RMM-DIIS:  cpu time    1.0661: real time    1.0663
    ORTHCH:  cpu time    0.0707: real time    0.0707
 BZINTS: Fermi energy: -1.369935;138.000000 electrons
         Band energy:***********;  BLOECHL correction: -0.057607
       DOS:  cpu time    0.0034: real time    0.0034
    --------------------------------------------
      LOOP:  cpu time    1.6358: real time    1.6562

 eigenvalue-minimisations  :   510
 total energy-change (2. order) :-0.6517107E+02  (-0.4939567E+02)
 number of electron     138.0000000 magnetization 
 augmentation part      138.0000000 magnetization 

 DIPCOR: dipole corrections for dipol
 direction  3 min pos   365,
 dipolmoment           0.000000      0.000000     -0.000309 electrons x Angstroem
 Tr[quadrupol]     -1915.995735

 energy correction for charged system         0.000000 eV
 dipol+quadrupol energy correction           -0.000000 eV
 added-field ion interaction          0.001371 eV  (added to PSCEN)


 Free energy of the ion-electron system (eV)
  ---------------------------------------------------
  alpha Z        PSCENC =        63.16243464
  Ewald energy   TEWEN  =     12993.42535575
  -Hartree energ DENC   =    -16220.83321129
  -exchange      EXHF   =         0.00000000
  -V(xc)+E(xc)   XCENC  =     -2051.10135395
  PAW double counting   =      5135.15659847    -2719.01140655
  entropy T*S    EENTRO =         0.00000000
  eigenvalues    EBANDS =     -1071.25843320
  atomic energy  EATOM  =      3827.98814510
  Solvation  Ediel_sol  =         0.00000000
  ---------------------------------------------------
  free energy    TOTEN  =       -42.47187101 eV

  energy without entropy =      -42.47187101  energy(sigma->0) =      -42.47187101


--------------------------------------------------------------------------------------------------------




--------------------------------------- Iteration      1(   7)  ---------------------------------------


    EDDIAG:  cpu time    0.4857: real time    0.5096
  RMM-DIIS:  cpu time    1.0509: real time    1.0511
    ORTHCH:  cpu time    0.0706: real time    0.0706
 BZINTS: Fermi energy: -1.435927;138.000000 electrons
         Band energy:***********;  BLOECHL correction: -0.056232
       DOS:  cpu time    0.0032: real time    0.0032
    --------------------------------------------
      LOOP:  cpu time    1.6104: real time    1.6344

 eigenvalue-minimisations  :   510
 total energy-change (2. order) :-0.2793416E+02  (-0.2094775E+02)
 number of electron     138.0000000 magnetization 
 augmentation part      138.0000000 magnetization 

 DIPCOR: dipole corrections for dipol
 direction  3 min pos   365,
 dipolmoment           0.000000      0.000000     -0.000309 electrons x Angstroem
 Tr[quadrupol]     -1915.995735

 energy correction for charged system         0.000000 eV
 dipol+quadrupol energy correction           -0.000000 eV
 added-field ion interaction          0.001371 eV  (added to PSCEN)


 Free energy of the ion-electron system (eV)
  ---------------------------------------------------
  alpha Z        PSCENC =        63.16243464
  Ewald energy   TEWEN  =     12993.42535575
  -Hartree energ DENC   =    -16220.83321129
  -exchange      EXHF   =         0.00000000
  -V(xc)+E(xc)   XCENC  =     -2051.10135395
  PAW double counting   =      5135.15659847    -2719.01140655
  entropy T*S    EENTRO =         0.00000000
  eigenvalues    EBANDS =     -1099.19259190
  atomic energy  EATOM  =      3827.98814510
  Solvation  Ediel_sol  =         0.00000000
  ---------------------------------------------------
  free energy    TOTEN  =       -70.40602971 eV

  energy without entropy =      -70.40602971  energy(sigma->0) =      -70.40602971


--------------------------------------------------------------------------------------------------------




--------------------------------------- Iteration      1(   8)  ---------------------------------------


    EDDIAG:  cpu time    0.4934: real time    0.5102
  RMM-DIIS:  cpu time    1.0555: real time    1.0556
    ORTHCH:  cpu time    0.0699: real time    0.0699
 BZINTS: Fermi energy: -1.471383;138.000000 electrons
         Band energy:***********;  BLOECHL correction: -0.073233
       DOS:  cpu time    0.0033: real time    0.0033
    --------------------------------------------
      LOOP:  cpu time    1.6221: real time    1.6391

 eigenvalue-minimisations  :   510
 total energy-change (2. order) :-0.7833867E+01  (-0.6358090E+01)
 number of electron     138.0000000 magnetization 
 augmentation part      138.0000000 magnetization 

 DIPCOR: dipole corrections for dipol
 direction  3 min pos   365,
 dipolmoment           0.000000      0.000000     -0.000309 electrons x Angstroem
 Tr[quadrupol]     -1915.995735

 energy correction for charged system         0.000000 eV
 dipol+quadrupol energy correction           -0.000000 eV
 added-field ion interaction          0.001371 eV  (added to PSCEN)


 Free energy of the ion-electron system (eV)
  ---------------------------------------------------
  alpha Z        PSCENC =        63.16243464
  Ewald energy   TEWEN  =     12993.42535575
  -Hartree energ DENC   =    -16220.83321129
  -exchange      EXHF   =         0.00000000
  -V(xc)+E(xc)   XCENC  =     -2051.10135395
  PAW double counting   =      5135.15659847    -2719.01140655
  entropy T*S    EENTRO =         0.00000000
  eigenvalues    EBANDS =     -1107.02645921
  atomic energy  EATOM  =      3827.98814510
  Solvation  Ediel_sol  =         0.00000000
  ---------------------------------------------------
  free energy    TOTEN  =       -78.23989703 eV

  energy without entropy =      -78.23989703  energy(sigma->0) =      -78.23989703


--------------------------------------------------------------------------------------------------------




--------------------------------------- Iteration      1(   9)  ---------------------------------------


    EDDIAG:  cpu time    0.4840: real time    0.5070
  RMM-DIIS:  cpu time    2.6977: real time    2.6983
    ORTHCH:  cpu time    0.0712: real time    0.0712
 BZINTS: Fermi energy: -1.503940;138.000000 electrons
         Band energy:***********;  BLOECHL correction: -0.070604
       DOS:  cpu time    0.0030: real time    0.0030
    --------------------------------------------
      LOOP:  cpu time    3.2560: real time    3.2795

 eigenvalue-minimisations  :  1468
 total energy-change (2. order) :-0.2325838E+01  (-0.2235392E+01)
 number of electron     138.0000000 magnetization 
 augmentation part      138.0000000 magnetization 

 DIPCOR: dipole corrections for dipol
 direction  3 min pos   365,
 dipolmoment           0.000000      0.000000     -0.000309 electrons x Angstroem
 Tr[quadrupol]     -1915.995735

 energy correction for charged system         0.000000 eV
 dipol+quadrupol energy correction           -0.000000 eV
 added-field ion interaction          0.001371 eV  (added to PSCEN)


 Free energy of the ion-electron system (eV)
  ---------------------------------------------------
  alpha Z        PSCENC =        63.16243464
  Ewald energy   TEWEN  =     12993.42535575
  -Hartree energ DENC   =    -16220.83321129
  -exchange      EXHF   =         0.00000000
  -V(xc)+E(xc)   XCENC  =     -2051.10135395
  PAW double counting   =      5135.15659847    -2719.01140655
  entropy T*S    EENTRO =         0.00000000
  eigenvalues    EBANDS =     -1109.35229700
  atomic energy  EATOM  =      3827.98814510
  Solvation  Ediel_sol  =         0.00000000
  ---------------------------------------------------
  free energy    TOTEN  =       -80.56573481 eV

  energy without entropy =      -80.56573481  energy(sigma->0) =      -80.56573481


--------------------------------------------------------------------------------------------------------




--------------------------------------- Iteration      1(  10)  ---------------------------------------


    EDDIAG:  cpu time    0.4819: real time    0.5051
  RMM-DIIS:  cpu time    3.1484: real time    3.1489
    ORTHCH:  cpu time    0.0712: real time    0.0712
 BZINTS: Fermi energy: -1.507157;138.000000 electrons
         Band energy:***********;  BLOECHL correction: -0.066727
       DOS:  cpu time    0.0033: real time    0.0033
    --------------------------------------------
      LOOP:  cpu time    3.7048: real time    3.7285

 eigenvalue-minimisations  :  1749
 total energy-change (2. order) :-0.2986163E+00  (-0.3181195E+00)
 number of electron     138.0000000 magnetization 
 augmentation part      138.0000000 magnetization 

 DIPCOR: dipole corrections for dipol
 direction  3 min pos   365,
 dipolmoment           0.000000      0.000000     -0.000309 electrons x Angstroem
 Tr[quadrupol]     -1915.995735

 energy correction for charged system         0.000000 eV
 dipol+quadrupol energy correction           -0.000000 eV
 added-field ion interaction          0.001371 eV  (added to PSCEN)


 Free energy of the ion-electron system (eV)
  ---------------------------------------------------
  alpha Z        PSCENC =        63.16243464
  Ewald energy   TEWEN  =     12993.42535575
  -Hartree energ DENC   =    -16220.83321129
  -exchange      EXHF   =         0.00000000
  -V(xc)+E(xc)   XCENC  =     -2051.10135395
  PAW double counting   =      5135.15659847    -2719.01140655
  entropy T*S    EENTRO =         0.00000000
  eigenvalues    EBANDS =     -1109.65091328
  atomic energy  EATOM  =      3827.98814510
  Solvation  Ediel_sol  =         0.00000000
  ---------------------------------------------------
  free energy    TOTEN  =       -80.86435109 eV

  energy without entropy =      -80.86435109  energy(sigma->0) =      -80.86435109


--------------------------------------------------------------------------------------------------------




--------------------------------------- Iteration      1(  11)  ---------------------------------------


    EDDIAG:  cpu time    0.4866: real time    0.5105
  RMM-DIIS:  cpu time    3.0881: real time    3.0885
    ORTHCH:  cpu time    0.0714: real time    0.0714
 BZINTS: Fermi energy: -1.507629;138.000000 electrons
         Band energy:***********;  BLOECHL correction: -0.066483
       DOS:  cpu time    0.0033: real time    0.0033
    --------------------------------------------
      LOOP:  cpu time    3.6494: real time    3.6737

 eigenvalue-minimisations  :  1718
 total energy-change (2. order) : 0.1403574E-02  (-0.1631360E-01)
 number of electron     138.0000000 magnetization 
 augmentation part      138.0000000 magnetization 

 DIPCOR: dipole corrections for dipol
 direction  3 min pos   365,
 dipolmoment           0.000000      0.000000     -0.000309 electrons x Angstroem
 Tr[quadrupol]     -1915.995735

 energy correction for charged system         0.000000 eV
 dipol+quadrupol energy correction           -0.000000 eV
 added-field ion interaction          0.001371 eV  (added to PSCEN)


 Free energy of the ion-electron system (eV)
  ---------------------------------------------------
  alpha Z        PSCENC =        63.16243464
  Ewald energy   TEWEN  =     12993.42535575
  -Hartree energ DENC   =    -16220.83321129
  -exchange      EXHF   =         0.00000000
  -V(xc)+E(xc)   XCENC  =     -2051.10135395
  PAW double counting   =      5135.15659847    -2719.01140655
  entropy T*S    EENTRO =         0.00000000
  eigenvalues    EBANDS =     -1109.64950971
  atomic energy  EATOM  =      3827.98814510
  Solvation  Ediel_sol  =         0.00000000
  ---------------------------------------------------
  free energy    TOTEN  =       -80.86294752 eV

  energy without entropy =      -80.86294752  energy(sigma->0) =      -80.86294752


--------------------------------------------------------------------------------------------------------




--------------------------------------- Iteration      1(  12)  ---------------------------------------


    EDDIAG:  cpu time    0.4912: real time    0.5078
  RMM-DIIS:  cpu time    3.2619: real time    3.2627
    ORTHCH:  cpu time    0.0724: real time    0.0726
 BZINTS: Fermi energy: -1.507697;138.000000 electrons
         Band energy:***********;  BLOECHL correction: -0.066455
       DOS:  cpu time    0.0032: real time    0.0032
    CHARGE:  cpu time    0.1274: real time    0.1275
    MIXING:  cpu time    0.0037: real time    0.0038
    --------------------------------------------
      LOOP:  cpu time    3.9596: real time    3.9775

 eigenvalue-minimisations  :  1796
 total energy-change (2. order) :-0.2721264E-02  (-0.3472148E-02)
 number of electron     138.0000001 magnetization 
 augmentation part        5.2683353 magnetization 

 DIPCOR: dipole corrections for dipol
 direction  3 min pos   365,
 dipolmoment           0.000000      0.000000     -0.000309 electrons x Angstroem
 Tr[quadrupol]     -1915.995735

 energy correction for charged system         0.000000 eV
 dipol+quadrupol energy correction           -0.000000 eV
 added-field ion interaction          0.001371 eV  (added to PSCEN)


 Broyden mixing:
  rms(total) = 0.20182E+01    rms(broyden)= 0.20171E+01
  rms(prec ) = 0.21105E+01
  weight for this iteration     100.00

 Free energy of the ion-electron system (eV)
  ---------------------------------------------------
  alpha Z        PSCENC =        63.16243464
  Ewald energy   TEWEN  =     12993.42535575
  -Hartree energ DENC   =    -16220.83321129
  -exchange      EXHF   =         0.00000000
  -V(xc)+E(xc)   XCENC  =     -2051.10135395
  PAW double counting   =      5135.15659847    -2719.01140655
  entropy T*S    EENTRO =         0.00000000
  eigenvalues    EBANDS =     -1109.65223097
  atomic energy  EATOM  =      3827.98814510
  Solvation  Ediel_sol  =         0.00000000
  ---------------------------------------------------
  free energy    TOTEN  =       -80.86566878 eV

  energy without entropy =      -80.86566878  energy(sigma->0) =      -80.86566878


--------------------------------------------------------------------------------------------------------




--------------------------------------- Iteration      1(  13)  ---------------------------------------


    POTLOK:  cpu time    4.9288: real time    4.9547
    SETDIJ:  cpu time    0.1372: real time    0.1372
    EDDIAG:  cpu time    0.4868: real time    0.4872
  RMM-DIIS:  cpu time    2.5699: real time    2.5704
    ORTHCH:  cpu time    0.0703: real time    0.0703
 BZINTS: Fermi energy: -1.185665;138.000000 electrons
         Band energy:-924.851603;  BLOECHL correction: -0.075246
       DOS:  cpu time    0.0032: real time    0.0032
    CHARGE:  cpu time    0.1259: real time    0.1259
    MIXING:  cpu time    0.0053: real time    0.0053
    --------------------------------------------
      LOOP:  cpu time    8.3275: real time    8.3544

 eigenvalue-minimisations  :  1421
 total energy-change (2. order) : 0.9880991E+01  (-0.6173731E+01)
 number of electron     138.0000001 magnetization 
 augmentation part        4.4761999 magnetization 

 DIPCOR: dipole corrections for dipol
 direction  3 min pos   365,
 dipolmoment           0.000000      0.000000      0.572514 electrons x Angstroem
 Tr[quadrupol]     -1927.423961

 energy correction for charged system         0.000000 eV
 dipol+quadrupol energy correction           -0.011495 eV
 added-field ion interaction         -2.539809 eV  (added to PSCEN)


 Broyden mixing:
  rms(total) = 0.79116E+00    rms(broyden)= 0.79063E+00
  rms(prec ) = 0.10206E+01
  weight for this iteration     100.00

 eigenvalues of (default mixing * dielectric matrix)
  average eigenvalue GAMMA=   0.9453
  0.9453

 Free energy of the ion-electron system (eV)
  ---------------------------------------------------
  alpha Z        PSCENC =        60.60975956
  Ewald energy   TEWEN  =     12993.42535575
  -Hartree energ DENC   =    -16400.58540685
  -exchange      EXHF   =         0.00000000
  -V(xc)+E(xc)   XCENC  =     -2041.12729682
  PAW double counting   =      5557.68561703    -3144.12924789
  entropy T*S    EENTRO =         0.00000000
  eigenvalues    EBANDS =      -924.85160349
  atomic energy  EATOM  =      3827.98814510
  Solvation  Ediel_sol  =         0.00000000
  ---------------------------------------------------
  free energy    TOTEN  =       -70.98467760 eV

  energy without entropy =      -70.98467760  energy(sigma->0) =      -70.98467760


--------------------------------------------------------------------------------------------------------




--------------------------------------- Iteration      1(  14)  ---------------------------------------


    POTLOK:  cpu time    4.9128: real time    4.9370
    SETDIJ:  cpu time    0.1347: real time    0.1353
    EDDIAG:  cpu time    0.4748: real time    0.4754
  RMM-DIIS:  cpu time    2.8997: real time    2.9406
    ORTHCH:  cpu time    0.0692: real time    0.0693
 BZINTS: Fermi energy: -0.874953;138.000000 electrons
         Band energy:***********;  BLOECHL correction: -0.011021
       DOS:  cpu time    0.0033: real time    0.0033
    CHARGE:  cpu time    0.1247: real time    0.1247
    MIXING:  cpu time    0.0036: real time    0.0036
    --------------------------------------------
      LOOP:  cpu time    8.6227: real time    8.6891

 eigenvalue-minimisations  :  1615
 total energy-change (2. order) :-0.2554135E+02  (-0.1339809E+01)
 number of electron     138.0000001 magnetization 
 augmentation part        4.4568427 magnetization 

 DIPCOR: dipole corrections for dipol
 direction  3 min pos   377,
 dipolmoment           0.000000      0.000000     -2.027787 electrons x Angstroem
 Tr[quadrupol]     -1912.216265

 energy correction for charged system         0.000000 eV
 dipol+quadrupol energy correction           -0.144199 eV
 added-field ion interaction         -6.372228 eV  (added to PSCEN)


 Broyden mixing:
  rms(total) = 0.10716E+01    rms(broyden)= 0.10715E+01
  rms(prec ) = 0.31596E+01
  weight for this iteration     100.00

 eigenvalues of (default mixing * dielectric matrix)
  average eigenvalue GAMMA=   0.7308
  0.9598  0.5018

 Free energy of the ion-electron system (eV)
  ---------------------------------------------------
  alpha Z        PSCENC =        56.64463566
  Ewald energy   TEWEN  =     12993.42535575
  -Hartree energ DENC   =    -16346.50555570
  -exchange      EXHF   =         0.00000000
  -V(xc)+E(xc)   XCENC  =     -2039.18780220
  PAW double counting   =      5711.53461601    -3297.99627594
  entropy T*S    EENTRO =         0.00000000
  eigenvalues    EBANDS =     -1002.42914431
  atomic energy  EATOM  =      3827.98814510
  Solvation  Ediel_sol  =         0.00000000
  ---------------------------------------------------
  free energy    TOTEN  =       -96.52602562 eV

  energy without entropy =      -96.52602562  energy(sigma->0) =      -96.52602562


--------------------------------------------------------------------------------------------------------




--------------------------------------- Iteration      1(  15)  ---------------------------------------


    POTLOK:  cpu time    4.9321: real time    4.9519
    SETDIJ:  cpu time    0.1348: real time    0.1351
    EDDIAG:  cpu time    0.4736: real time    0.4741
  RMM-DIIS:  cpu time    2.6383: real time    2.6389
    ORTHCH:  cpu time    0.0698: real time    0.0698
 BZINTS: Fermi energy: -1.247320;138.000000 electrons
         Band energy:-922.154733;  BLOECHL correction: -0.084398
       DOS:  cpu time    0.0031: real time    0.0031
    CHARGE:  cpu time    0.1291: real time    0.1291
    MIXING:  cpu time    0.0036: real time    0.0036
    --------------------------------------------
      LOOP:  cpu time    8.3845: real time    8.4056

 eigenvalue-minimisations  :  1431
 total energy-change (2. order) : 0.2693710E+02  (-0.3162111E+00)
 number of electron     138.0000001 magnetization 
 augmentation part        4.3868560 magnetization 

 DIPCOR: dipole corrections for dipol
 direction  3 min pos   385,
 dipolmoment           0.000000      0.000000      0.136490 electrons x Angstroem
 Tr[quadrupol]     -1924.947550

 energy correction for charged system         0.000000 eV
 dipol+quadrupol energy correction           -0.000653 eV
 added-field ion interaction          1.118522 eV  (added to PSCEN)


 Broyden mixing:
  rms(total) = 0.49552E+00    rms(broyden)= 0.49548E+00
  rms(prec ) = 0.55450E+00
  weight for this iteration     100.00

 eigenvalues of (default mixing * dielectric matrix)
  average eigenvalue GAMMA=   1.0991
  1.9719  1.1769  0.1484

 Free energy of the ion-electron system (eV)
  ---------------------------------------------------
  alpha Z        PSCENC =        64.27893174
  Ewald energy   TEWEN  =     12993.42535575
  -Hartree energ DENC   =    -16407.97176593
  -exchange      EXHF   =         0.00000000
  -V(xc)+E(xc)   XCENC  =     -2038.70217734
  PAW double counting   =      5750.38917686    -3336.84185653
  entropy T*S    EENTRO =         0.00000000
  eigenvalues    EBANDS =      -922.15473325
  atomic energy  EATOM  =      3827.98814510
  Solvation  Ediel_sol  =         0.00000000
  ---------------------------------------------------
  free energy    TOTEN  =       -69.58892359 eV

  energy without entropy =      -69.58892359  energy(sigma->0) =      -69.58892359


--------------------------------------------------------------------------------------------------------




--------------------------------------- Iteration      1(  16)  ---------------------------------------


    POTLOK:  cpu time    5.0996: real time    5.1216
    SETDIJ:  cpu time    0.1455: real time    0.1455
    EDDIAG:  cpu time    0.4797: real time    0.4803
  RMM-DIIS:  cpu time    2.8706: real time    2.9044
    ORTHCH:  cpu time    0.0707: real time    0.0707
 BZINTS: Fermi energy: -0.974081;138.000000 electrons
         Band energy:-902.662395;  BLOECHL correction: -0.081929
       DOS:  cpu time    0.0032: real time    0.0032
    CHARGE:  cpu time    0.1290: real time    0.1290
    MIXING:  cpu time    0.0045: real time    0.0045
    --------------------------------------------
      LOOP:  cpu time    8.8028: real time    8.8594

 eigenvalue-minimisations  :  1597
 total energy-change (2. order) : 0.7791056E-02  (-0.1377508E+00)
 number of electron     138.0000001 magnetization 
 augmentation part        4.4410757 magnetization 

 DIPCOR: dipole corrections for dipol
 direction  3 min pos   371,
 dipolmoment           0.000000      0.000000      0.157765 electrons x Angstroem
 Tr[quadrupol]     -1929.950762

 energy correction for charged system         0.000000 eV
 dipol+quadrupol energy correction           -0.000873 eV
 added-field ion interaction         -0.102057 eV  (added to PSCEN)


 Broyden mixing:
  rms(total) = 0.25146E+00    rms(broyden)= 0.25144E+00
  rms(prec ) = 0.40107E+00
  weight for this iteration     100.00

 eigenvalues of (default mixing * dielectric matrix)
  average eigenvalue GAMMA=   1.0467
  2.3879  0.1526  0.6333  1.0131

 Free energy of the ion-electron system (eV)
  ---------------------------------------------------
  alpha Z        PSCENC =        63.05813362
  Ewald energy   TEWEN  =     12993.42535575
  -Hartree energ DENC   =    -16427.67297562
  -exchange      EXHF   =         0.00000000
  -V(xc)+E(xc)   XCENC  =     -2037.43302614
  PAW double counting   =      5858.99331568    -3445.27768569
  entropy T*S    EENTRO =         0.00000000
  eigenvalues    EBANDS =      -902.66239523
  atomic energy  EATOM  =      3827.98814510
  Solvation  Ediel_sol  =         0.00000000
  ---------------------------------------------------
  free energy    TOTEN  =       -69.58113253 eV

  energy without entropy =      -69.58113253  energy(sigma->0) =      -69.58113253


--------------------------------------------------------------------------------------------------------




--------------------------------------- Iteration      1(  17)  ---------------------------------------


    POTLOK:  cpu time    4.9354: real time    4.9525
    SETDIJ:  cpu time    0.1347: real time    0.1347
    EDDIAG:  cpu time    0.4784: real time    0.4789
  RMM-DIIS:  cpu time    2.4570: real time    2.4574
    ORTHCH:  cpu time    0.0694: real time    0.0694
 BZINTS: Fermi energy: -0.953692;138.000000 electrons
         Band energy:-898.512357;  BLOECHL correction: -0.081464
       DOS:  cpu time    0.0031: real time    0.0031
    CHARGE:  cpu time    0.1267: real time    0.1267
    MIXING:  cpu time    0.0039: real time    0.0039
    --------------------------------------------
      LOOP:  cpu time    8.2086: real time    8.2267

 eigenvalue-minimisations  :  1348
 total energy-change (2. order) : 0.3303920E+00  (-0.4111987E-01)
 number of electron     138.0000001 magnetization 
 augmentation part        4.4558146 magnetization 

 DIPCOR: dipole corrections for dipol
 direction  3 min pos   380,
 dipolmoment           0.000000      0.000000     -0.172819 electrons x Angstroem
 Tr[quadrupol]     -1928.331760

 energy correction for charged system         0.000000 eV
[...]
  0.013  -0.001  -0.000   0.054   0.001   0.000  -0.003  -0.000  -0.000   0.000   0.011  -0.000   0.000
  0.002   0.000  -0.002   0.001   0.076   0.000  -0.000  -0.004  -0.003  -0.000   0.000   0.004   0.000
  0.000   0.000  -0.004   0.000   0.000   0.000  -0.000  -0.000  -0.000  -0.000   0.000   0.000   0.000
 -0.003   0.000   0.000  -0.003  -0.000  -0.000   0.000   0.000   0.000  -0.000  -0.001   0.000   0.000
 -0.000  -0.000   0.000  -0.000  -0.004  -0.000   0.000   0.000   0.000   0.000   0.000  -0.000  -0.000
  0.001   0.000   0.000  -0.000  -0.003  -0.000   0.000   0.000   0.003   0.000   0.000  -0.000   0.000
  0.000  -0.000   0.004   0.000  -0.000  -0.000  -0.000   0.000   0.000   0.002   0.000   0.000  -0.000
 -0.022   0.000  -0.000   0.011   0.000   0.000  -0.001   0.000   0.000   0.000   0.004  -0.000  -0.000
 -0.000   0.000  -0.000  -0.000   0.004   0.000   0.000  -0.000  -0.000   0.000  -0.000   0.002   0.000
 -0.001  -0.000  -0.003   0.000   0.000   0.000   0.000  -0.000   0.000  -0.000  -0.000   0.000   0.003


------------------------ aborting loop because EDIFF is reached ----------------------------------------


    CHARGE:  cpu time    0.3584: real time    0.3585
    FORLOC:  cpu time    0.0397: real time    0.0397
    FORNL :  cpu time    0.6947: real time    0.6949
    STRESS:  cpu time    2.0921: real time    2.0925
    FORCOR:  cpu time    4.9473: real time    4.9485
    FORHAR:  cpu time    0.0741: real time    0.0741
    MIXING:  cpu time    0.0070: real time    0.0070
    OFIELD:  cpu time    0.0001: real time    0.0001

  FORCE on cell =-STRESS in cart. coord.  units (eV):
  Direction    XX          YY          ZZ          XY          YZ          ZX
  --------------------------------------------------------------------------------------
  Alpha Z    63.16106    63.16106    63.16106
  Ewald   14574.25976 14367.19947-15948.04369  -233.96848   151.50344    91.40523
  Hartree 15468.16347 15302.41904-14313.10768  -176.35233    44.96952    18.90133
  E(xc)    -445.67984  -445.63779  -444.66348    -0.16895     0.56829     0.38686
  Local  -31007.46963-30631.12882 29297.19073   410.17361  -159.15251   -83.82897
  n-local   119.54218   119.40586   111.69862    -0.33385     0.79031     0.55786
  augment    44.79027    44.51444    45.53326    -0.01274    -2.45713    -1.77767
  Kinetic  1173.58178  1171.33858  1188.96132     1.56724   -35.70389   -25.66440
  Fock        0.00000     0.00000     0.00000     0.00000     0.00000     0.00000
  -------------------------------------------------------------------------------------
  Total      -9.65096    -8.72815     0.73013     0.90450     0.51802    -0.01975
  in kB      -5.99334    -5.42027     0.45342     0.56170     0.32170    -0.01226
  external pressure =       -3.65 kB  Pullay stress =        0.00 kB


 VOLUME and BASIS-vectors are now :
 -----------------------------------------------------------------------------
  energy-cutoff  :      520.00
  volume of cell :     2579.96
      direct lattice vectors                 reciprocal lattice vectors
     9.555752754  0.000000000  0.000000000     0.104649003  0.060419130  0.000000000
    -4.777876377  8.275524637  0.000000000     0.000000000  0.120838260  0.000000000
     0.000000000  0.000000000 32.625095367     0.000000000  0.000000000  0.030651251

  length of vectors
     9.555752754  9.555752754 32.625095367     0.120838260  0.120838260  0.030651251


 FORCES acting on ions
    electron-ion (+dipol)            ewald-force                    non-local-force                 convergence-correction
 -----------------------------------------------------------------------------------------------
   0.868E-01 -.146E-01 0.122E+03   -.112E-01 -.134E-01 -.121E+03   -.527E-01 0.228E-01 -.782E+00   -.531E-06 -.574E-06 -.918E-03
   0.412E+00 0.533E-01 0.565E+02   -.295E+00 -.116E+00 -.565E+02   -.940E-01 0.543E-01 0.754E-01   0.474E-06 -.242E-04 -.579E-02
   -.578E+00 -.205E+01 0.493E+01   0.734E+00 0.202E+01 -.526E+01   -.139E+00 0.156E-01 0.333E+00   -.111E-04 -.340E-04 -.454E-03
   -.487E-01 -.171E-01 0.122E+03   -.153E-01 -.276E-02 -.121E+03   0.183E-01 0.209E-02 -.860E+00   0.100E-04 0.144E-04 -.918E-03
   0.227E+00 -.732E-02 0.567E+02   -.219E+00 0.109E-01 -.567E+02   -.460E-02 -.316E-02 0.545E-01   0.112E-04 0.242E-04 -.580E-02
   -.653E+00 -.449E+01 -.136E+02   0.656E+00 0.448E+01 0.133E+02   0.270E-02 -.863E-03 0.323E+00   0.408E-04 0.289E-04 -.132E-02
   0.260E-01 0.800E-01 0.122E+03   -.115E-01 -.578E-02 -.121E+03   0.931E-02 -.505E-01 -.907E+00   0.436E-05 -.632E-05 -.905E-03
   0.124E+00 0.376E+00 0.561E+02   -.140E+00 -.271E+00 -.563E+02   0.643E-02 -.887E-01 0.142E+00   -.171E-05 0.555E-05 -.579E-02
   -.464E+01 0.290E+01 -.184E+02   0.468E+01 -.264E+01 0.179E+02   -.318E-01 -.248E+00 0.482E+00   -.546E-04 -.865E-05 -.118E-02
   -.458E-01 -.515E-01 0.122E+03   0.685E-02 -.234E-02 -.121E+03   0.246E-01 0.285E-01 -.868E+00   0.107E-05 -.625E-05 -.903E-03
   -.198E+00 0.292E-01 0.567E+02   0.118E+00 -.664E-01 -.569E+02   0.694E-01 0.313E-01 0.143E+00   0.127E-04 -.159E-04 -.580E-02
   -.625E+00 0.191E+01 -.625E+01   0.485E+00 -.208E+01 0.579E+01   0.126E+00 0.151E+00 0.471E+00   -.110E-04 0.156E-04 -.145E-02
   -.136E-02 0.133E-01 0.122E+03   0.722E-02 0.675E-02 -.121E+03   -.925E-02 -.153E-01 -.871E+00   -.812E-05 -.704E-05 -.927E-03
   0.121E+00 -.286E-01 0.573E+02   -.941E-01 -.216E-01 -.573E+02   -.154E-01 0.286E-01 0.397E-01   0.143E-04 0.291E-04 -.577E-02
   0.536E+01 0.670E+01 -.110E+02   -.556E+01 -.746E+01 0.102E+02   0.199E+00 0.755E+00 0.786E+00   0.382E-04 0.148E-03 -.126E-02
   -.494E-01 -.365E-02 0.122E+03   0.419E-02 0.622E-02 -.121E+03   0.334E-01 -.148E-02 -.761E+00   -.143E-04 0.118E-05 -.914E-03
   0.670E-01 0.148E-01 0.570E+02   -.122E+00 0.297E-01 -.570E+02   0.376E-01 -.293E-01 0.202E-02   0.166E-04 0.125E-04 -.578E-02
   0.195E+02 0.266E+01 -.110E+01   -.199E+02 -.247E+01 0.988E+00   0.350E+00 -.196E+00 0.129E+00   0.160E-03 -.809E-04 -.486E-03
   -.377E-02 0.700E-01 0.122E+03   0.431E-02 0.514E-03 -.121E+03   -.462E-02 -.183E-01 -.900E+00   -.855E-06 -.128E-04 -.909E-03
   -.232E+00 -.602E-01 0.566E+02   0.191E+00 0.502E-01 -.567E+02   0.378E-01 0.408E-02 0.113E+00   -.136E-04 -.447E-04 -.580E-02
   0.135E+01 -.206E+01 -.119E+02   -.122E+01 0.217E+01 0.116E+02   -.129E+00 -.967E-01 0.341E+00   0.194E-04 -.800E-04 -.125E-02
   0.625E-01 -.588E-01 0.122E+03   0.812E-02 0.616E-02 -.121E+03   -.172E-01 0.179E-01 -.813E+00   -.171E-05 0.105E-04 -.906E-03
   -.336E+00 -.158E+00 0.566E+02   0.308E+00 0.171E+00 -.566E+02   0.185E-01 -.888E-02 0.594E-01   -.258E-04 0.189E-04 -.579E-02
   -.116E+02 0.471E+01 0.655E+01   0.118E+02 -.497E+01 -.695E+01   -.177E+00 0.269E+00 0.410E+00   -.898E-04 0.825E-04 -.658E-03
   -.646E-01 -.183E-01 0.122E+03   0.728E-02 0.477E-02 -.121E+03   0.384E-01 0.126E-01 -.783E+00   0.100E-04 0.648E-05 -.919E-03
   -.267E+00 -.231E+00 0.565E+02   0.273E+00 0.217E+00 -.566E+02   0.107E-01 0.138E-01 0.273E-01   -.152E-04 -.596E-05 -.576E-02
   -.726E+01 -.114E+02 0.165E+02   0.751E+01 0.115E+02 -.153E+02   -.247E+00 -.107E+00 -.120E+01   -.972E-04 -.902E-04 -.605E-03
   0.135E+00 0.109E+00 0.899E+02   -.978E-01 -.103E+00 -.898E+02   -.269E-01 -.327E-01 -.384E-01   -.724E-05 -.592E-05 -.445E-02
   0.813E+00 0.743E+00 0.238E+02   -.815E+00 -.622E+00 -.239E+02   0.520E-02 -.133E+00 0.136E+00   0.123E-04 0.924E-05 -.434E-02
   0.133E+00 -.395E-01 0.898E+02   -.674E-01 0.254E-01 -.897E+02   -.435E-01 0.255E-01 -.142E-01   -.615E-05 0.209E-04 -.444E-02
   0.576E+00 0.880E-02 0.226E+02   -.581E+00 -.153E-01 -.226E+02   0.859E-02 0.104E-01 0.704E-01   0.225E-04 0.241E-04 -.431E-02
   0.308E-01 0.640E-01 0.898E+02   -.823E-01 -.652E-01 -.897E+02   0.134E-01 0.512E-02 -.724E-01   0.162E-04 -.128E-04 -.443E-02
   0.344E+00 0.347E+00 0.241E+02   -.340E+00 -.396E+00 -.240E+02   -.264E-01 0.503E-01 -.138E-02   -.323E-05 -.173E-04 -.436E-02
   -.235E+00 0.894E-02 0.899E+02   0.176E+00 0.314E-01 -.898E+02   0.592E-01 -.230E-01 -.335E-01   0.223E-04 -.162E-04 -.444E-02
   -.503E+00 0.844E+00 0.252E+02   0.442E+00 -.776E+00 -.253E+02   0.670E-01 -.512E-01 0.143E+00   -.854E-06 0.277E-04 -.435E-02
   -.588E-01 -.141E+00 0.898E+02   0.833E-01 0.141E+00 -.897E+02   -.149E-01 0.152E-01 -.516E-01   -.999E-05 0.198E-04 -.442E-02
   0.107E+01 -.508E+00 0.260E+02   -.964E+00 0.383E+00 -.265E+02   -.998E-01 0.122E+00 0.570E+00   0.670E-05 0.197E-04 -.432E-02
   -.589E-01 -.366E-01 0.898E+02   0.654E-01 0.141E-02 -.898E+02   -.286E-02 -.416E-02 -.160E-01   -.957E-05 -.233E-05 -.443E-02
   0.463E+00 0.132E+00 0.240E+02   -.401E+00 -.151E+00 -.242E+02   -.595E-01 0.530E-02 0.108E+00   0.841E-05 -.400E-04 -.434E-02
   0.105E+00 0.189E-02 0.897E+02   -.837E-01 0.126E-01 -.896E+02   -.294E-01 -.631E-02 -.409E-01   -.154E-04 -.245E-06 -.444E-02
   -.318E+00 -.495E+00 0.243E+02   0.402E+00 0.451E+00 -.243E+02   -.896E-01 0.498E-01 -.174E-01   -.129E-04 0.458E-05 -.435E-02
   0.889E-02 0.407E-01 0.897E+02   -.185E-01 -.185E-01 -.896E+02   -.165E-01 -.225E-01 0.526E-01   0.162E-04 -.265E-05 -.444E-02
   -.188E+01 -.152E+00 0.230E+02   0.182E+01 0.209E+00 -.231E+02   0.634E-01 -.673E-01 0.542E-01   -.306E-04 0.790E-05 -.415E-02
   -.157E-01 0.406E-01 0.897E+02   0.171E-01 -.554E-01 -.896E+02   0.217E-01 -.115E-01 0.241E-01   -.593E-05 -.188E-06 -.443E-02
   -.869E+00 -.105E+01 0.232E+02   0.772E+00 0.101E+01 -.234E+02   0.103E+00 0.424E-01 0.161E+00   -.503E-05 -.391E-04 -.419E-02
   0.814E+01 0.405E+02 -.259E+03   -.175E+02 -.651E+02 0.235E+03   0.931E+01 0.247E+02 0.231E+02   -.220E-04 -.132E-03 0.511E-02
   -.681E+01 0.374E+02 -.424E+03   -.645E+01 -.545E+02 0.462E+03   0.132E+02 0.172E+02 -.382E+02   -.959E-04 0.132E-03 0.627E-02
   0.256E+02 -.474E+01 -.420E+03   -.322E+02 -.248E+02 0.452E+03   0.658E+01 0.295E+02 -.319E+02   0.946E-04 -.124E-03 0.640E-02
   -.916E+01 0.556E+02 -.253E+03   -.860E+01 -.771E+02 0.233E+03   0.177E+02 0.216E+02 0.201E+02   -.416E-03 0.261E-03 0.458E-02
   0.115E+02 -.634E+01 -.268E+03   -.329E+02 -.134E+02 0.258E+03   0.214E+02 0.198E+02 0.101E+02   -.503E-03 -.337E-03 0.414E-02
   0.738E+02 0.400E+02 -.282E+03   -.910E+02 -.649E+02 0.263E+03   0.173E+02 0.249E+02 0.182E+02   0.444E-03 -.421E-03 0.466E-02
   0.376E+02 -.387E+02 -.907E+02   -.427E+02 0.434E+02 0.940E+02   0.510E+01 -.475E+01 -.335E+01   0.483E-04 -.456E-04 0.945E-03
   -.559E+02 -.497E+01 -.909E+02   0.630E+02 0.538E+01 0.942E+02   -.709E+01 -.406E+00 -.331E+01   -.412E-04 0.610E-05 0.944E-03
   -.325E+02 -.652E+02 -.477E+02   0.359E+02 0.725E+02 0.464E+02   -.342E+01 -.725E+01 0.132E+01   0.131E-04 0.943E-04 0.956E-03
   -.915E+00 0.413E+02 0.263E+02   0.794E+00 -.449E+02 -.330E+02   0.130E+00 0.363E+01 0.668E+01   -.145E-04 -.132E-04 0.775E-03
   -.322E+02 -.822E+02 -.665E+02   0.355E+02 0.897E+02 0.669E+02   -.323E+01 -.750E+01 -.384E+00   0.734E-04 0.124E-03 0.104E-02
   0.258E+02 0.586E+01 0.304E+02   -.281E+02 -.682E+01 -.374E+02   0.235E+01 0.962E+00 0.705E+01   -.264E-04 -.251E-04 0.732E-03
   0.179E+02 -.347E+02 -.611E+02   -.206E+02 0.397E+02 0.617E+02   0.267E+01 -.494E+01 -.593E+00   -.686E-04 0.292E-04 0.765E-03
   -.621E+02 0.366E+01 -.111E+03   0.683E+02 -.426E+01 0.116E+03   -.624E+01 0.644E+00 -.524E+01   -.471E-04 0.294E-04 0.942E-03
   -.503E+02 -.497E+02 -.976E+02   0.551E+02 0.548E+02 0.102E+03   -.481E+01 -.509E+01 -.400E+01   -.466E-04 -.388E-04 0.857E-03
   0.494E+01 0.485E+01 -.152E+01   -.491E+01 -.484E+01 0.153E+01   -.285E-01 -.742E-02 -.445E-01   0.358E-04 0.273E-04 -.341E-03
   0.287E+02 -.563E+02 -.104E+03   -.316E+02 0.625E+02 0.108E+03   0.304E+01 -.625E+01 -.449E+01   0.415E-04 -.352E-04 0.953E-03
   -.515E+02 0.671E+01 -.702E+02   0.586E+02 -.784E+01 0.712E+02   -.710E+01 0.107E+01 -.105E+01   0.444E-04 -.596E-04 0.791E-03
 -----------------------------------------------------------------------------------------------
   -.669E+02 -.108E+03 0.974E+01   -.924E-13 0.124E-13 -.568E-12   0.669E+02 0.108E+03 -.964E+01   -.495E-03 -.552E-03 -.107E+00
 
 
 POSITION                                       TOTAL-FORCE (eV/Angst)
 -----------------------------------------------------------------------------------
      0.00000      0.00000      0.00000         0.023087     -0.005033      0.005154
      4.77276      8.26154      5.16674         0.022768     -0.008781      0.004451
      0.02432      0.00960     10.79828         0.016732     -0.007638      0.002208
     -1.59263      2.75851      0.00000        -0.045586     -0.017708     -0.041677
      7.96251      2.75903      5.13733         0.003859      0.000535      0.000953
      7.90284      2.74365     10.18387         0.005587     -0.004408      0.012465
     -3.18525      5.51702      0.00000         0.024010      0.023826     -0.015544
      6.35879      5.50793      5.15438        -0.008910      0.016249     -0.004028
     -3.15757      5.54940     10.27333         0.008395      0.017660      0.011962
      3.18525      0.00000      0.00000        -0.014279     -0.025252     -0.021705
     -1.59647      8.26228      5.13596        -0.010462     -0.005908     -0.001653
     -1.62086      8.24402     10.09549        -0.013408     -0.017358      0.017996
      1.59263      2.75851      0.00000        -0.003233      0.004804     -0.037316
      1.59000      2.73937      5.11882         0.011292     -0.021554     -0.011853
      1.52469      2.65804     10.15184         0.000664     -0.011243      0.004596
     -0.00000      5.51702      0.00000        -0.011697      0.001172     -0.029171
     -0.01181      5.51195      5.15600        -0.016746      0.015219      0.000266
     -0.12065      5.54551     10.77828        -0.011663     -0.009201      0.013572
      6.37050      0.00000      0.00000        -0.003915      0.052283     -0.043380
      1.59867      8.25771      5.14637        -0.002852     -0.005858     -0.003269
      6.38427      0.03309     10.22506         0.001245      0.009669      0.020408
      4.77788      2.75851      0.00000         0.053587     -0.034607     -0.022702
      4.77090      2.76701      5.18070        -0.008890      0.004965      0.001968
      4.80480      2.62154     10.63408         0.001233      0.004190      0.002144
      3.18525      5.51702      0.00000        -0.018722     -0.000856     -0.044980
      3.20172      5.51238      5.17880         0.017093     -0.000998     -0.008416
      3.19242      5.52736     10.64543         0.005053      0.007716      0.012117
      0.00000      1.83901      2.60418         0.010281     -0.026601      0.019156
     -0.02747      1.80600      7.68970         0.003123     -0.012564     -0.000366
     -1.59263      4.59751      2.60418         0.022031      0.011445      0.031770
     -1.56844      4.60777      7.72461         0.004034      0.004022      0.004824
     -3.18525      7.35602      2.60418        -0.037850      0.003980     -0.038684
     -3.21493      7.33735      7.67605        -0.021548      0.000754      0.018203
      3.18525      1.83901      2.60418        -0.000250      0.017366      0.040357
      3.18943      1.85185      7.68918         0.006221      0.016779     -0.004970
      1.59263      4.59751      2.60418         0.009664      0.016136      0.008703
      1.59407      4.58580      7.65358         0.009398     -0.002715      0.004387
      0.00000      7.35602      2.60418         0.003756     -0.039276      0.042346
      0.02639      7.30281      7.70728         0.002274     -0.012876     -0.006619
      6.37050      1.83901      2.60418        -0.008156      0.008265     -0.010097
      6.34908      1.82066      7.66970        -0.006031      0.005840     -0.004807
      4.77788      4.59751      2.60418        -0.025953     -0.000219      0.074570
      4.74295      4.54608      7.88113        -0.005882     -0.010416     -0.015569
      3.18525      7.35602      2.60418         0.023241     -0.026246      0.048328
      3.21395      7.30656      7.83301         0.005896      0.001793     -0.003822
     -4.72865      8.25416     12.91529        -0.001640     -0.002191      0.003359
     -1.91326      8.14393     13.50412        -0.041581      0.029610      0.022267
      7.53066      1.76737     13.58395         0.007916      0.002304      0.019786
      4.30820      2.81420     12.68152        -0.016446      0.032503     -0.001762
      3.15695      5.14044     12.61784        -0.081154      0.028264      0.015451
      0.42036      5.67891     12.79699         0.060535     -0.040326     -0.010758
      8.96889      0.60196     13.35648         0.006283      0.001513     -0.005146
      0.94001      0.05116     13.34457         0.009536      0.000809     -0.018548
      3.27997      0.73995     13.32020        -0.034190      0.020452     -0.002247
     -1.91819      7.69910     12.61755         0.009633     -0.019163      0.019478
      7.91463      2.66760     13.60586         0.009678     -0.000327     -0.010253
      7.23156      1.66678     12.63882        -0.004743     -0.004888     -0.002534
      3.83967      3.74698     12.79582        -0.030905      0.020900     -0.003452
      5.05480      2.75812     13.31174        -0.017225      0.043727     -0.001586
      3.74387      5.75639     13.09856        -0.069958      0.040556      0.018144
      1.50904      4.53125     10.54424         0.003814     -0.002803     -0.032304
      0.08342      6.42464     13.33243         0.088860     -0.037560      0.009540
      1.40912      5.55807     12.95656         0.083098     -0.050731     -0.051710
 -----------------------------------------------------------------------------------
    total drift:                               -0.010422     -0.004357     -0.013811


--------------------------------------------------------------------------------------------------------



  FREE ENERGIE OF THE ION-ELECTRON SYSTEM (eV)
  ---------------------------------------------------
  free  energy   TOTEN  =       -69.22045634 eV

  energy  without entropy=      -69.22045634  energy(sigma->0) =      -69.22045634
 


--------------------------------------------------------------------------------------------------------


    POTLOK:  cpu time    5.0702: real time    5.0712


--------------------------------------------------------------------------------------------------------


 stress matrix after NEB project (eV)
     -9.65096      0.90450     -0.01975
      0.90450     -8.72815      0.51802
     -0.01975      0.51802      0.73013
  FORCES: max atom, RMS     0.110239    0.031512
  FORCE total and by dimension    0.250120    0.088860
  Stress total and by dimension   13.115960    9.650957
     LOOP+:  cpu time  215.3870: real time  216.8543
 vacuum level on the upper side and lower side of the slab         2.517         3.063
    4ORBIT:  cpu time    0.0000: real time    0.0000
 BZINTS: Fermi energy: -0.785331;138.000000 electrons
         Band energy:-876.471804;  BLOECHL correction: -0.083609

 total amount of memory used by VASP MPI-rank0    62210. kBytes
=======================================================================

   base      :      30000. kBytes
   nonlr-proj:       6307. kBytes
   fftplans  :       6459. kBytes
   grid      :      11407. kBytes
   one-center:         24. kBytes
   wavefun   :       8013. kBytes
 
  
  
 General timing and accounting informations for this job:
 ========================================================
  
                  Total CPU time used (sec):      260.815
                            User time (sec):      252.458
                          System time (sec):        8.357
                         Elapsed time (sec):      271.151
  
                   Maximum memory used (kb):      270056.
                   Average memory used (kb):           0.
  
                          Minor page faults:       195613
                          Major page faults:            0
                 Voluntary context switches:        76610
