 running on   72 total cores
 distrk:  each k-point on   72 cores,    1 groups
 distr:  one band on   24 cores,    3 groups
 using from now: INCAR     
 vasp.5.4.4.18Apr17-6-g9f103f2a35 (build Jun 08 2018 12:06:12) complex          
  
 POSCAR found type information on POSCAR  Mg O  H 
 POSCAR found :  3 types and      63 ions
 scaLAPACK will be used

 ----------------------------------------------------------------------------- 
|                                                                             |
|           W    W    AA    RRRRR   N    N  II  N    N   GGGG   !!!           |
|           W    W   A  A   R    R  NN   N  II  NN   N  G    G  !!!           |
|           W    W  A    A  R    R  N N  N  II  N N  N  G       !!!           |
|           W WW W  AAAAAA  RRRRR   N  N N  II  N  N N  G  GGG   !            |
|           WW  WW  A    A  R   R   N   NN  II  N   NN  G    G                |
|           W    W  A    A  R    R  N    N  II  N    N   GGGG   !!!           |
|                                                                             |
|      For optimal performance we recommend to set                            |
|        NCORE= 4 - approx SQRT( number of cores)                             |
|      NCORE specifies how many cores store one orbital (NPAR=cpu/NCORE).     |
|      This setting can  greatly improve the performance of VASP for DFT.     |
|      The default,   NCORE=1            might be grossly inefficient         |
|      on modern multi-core architectures or massively parallel machines.     |
|      Do your own testing !!!!                                               |
|      Unfortunately you need to use the default for GW and RPA calculations. |
|      (for HF NCORE is supported but not extensively tested yet)             |
|                                                                             |
 ----------------------------------------------------------------------------- 


 ----------------------------------------------------------------------------- 
|                                                                             |
|  ADVICE TO THIS USER RUNNING 'VASP/VAMP'   (HEAR YOUR MASTER'S VOICE ...):  |
|                                                                             |
|      You have switched on vdW-DFT.                                          |
|      This routine was written and supplied by Jiri Klimes.                  |
|      We recommed that you carefully read and cite the following             |
|      publication                                                            |
|      J. Klimes, D.R. Bowler, A. Michelides                                  |
|        J. Phys.: Cond Matt. 22 022201 (2010)                                |
|      J. Klimes, D.R. Bowler, A. Michelides                                  |
|        Phys. Rev. B. 83, 195131 (2011)                                      |
|      and references therein.                                                |
|                                                                             |
 ----------------------------------------------------------------------------- 


 ----------------------------------------------------------------------------- 
|                                                                             |
|  ADVICE TO THIS USER RUNNING 'VASP/VAMP'   (HEAR YOUR MASTER'S VOICE ...):  |
|                                                                             |
|      You enforced a specific xc-type in the INCAR file,                     |
|      a different type was found on the POTCAR file                          |
|          I HOPE YOU KNOW, WHAT YOU ARE  DOING                               |
|                                                                             |
 ----------------------------------------------------------------------------- 

 LDA part: xc-table for Pade appr. of Perdew
 POSCAR found type information on POSCAR  Mg O  H 
 POSCAR found :  3 types and      63 ions
 POSCAR, INCAR and KPOINTS ok, starting setup
 FFT: planning ...
 WAVECAR not read
 augmentation electrons   138.066493875592     
 soft         electrons  0.000000000000000E+000
 augmentation electrons   138.066493875592     
 soft         electrons  0.000000000000000E+000
 augmentation electrons   138.066493875592     
 soft         electrons  0.000000000000000E+000
 augmentation electrons   138.066493875592     
 soft         electrons  0.000000000000000E+000
 augmentation electrons   138.066493875592     
 soft         electrons  0.000000000000000E+000
 augmentation electrons   138.066493875592     
 soft         electrons  0.000000000000000E+000
 augmentation electrons   138.066493875592     
 soft         electrons  0.000000000000000E+000
 augmentation electrons   138.066493875592     
 soft         electrons  0.000000000000000E+000
 augmentation electrons   138.066493875592     
 soft         electrons  0.000000000000000E+000
 augmentation electrons   138.066493875592     
 soft         electrons  0.000000000000000E+000
 augmentation electrons   138.066493875592     
 soft         electrons  0.000000000000000E+000
 augmentation electrons   138.066493875592     
 soft         electrons  0.000000000000000E+000
 augmentation electrons   138.066493875592     
 soft         electrons  0.000000000000000E+000
 augmentation electrons   138.066493875592     
 soft         electrons  0.000000000000000E+000
 augmentation electrons   138.066493875592     
 soft         electrons  0.000000000000000E+000
 augmentation electrons   138.066493875592     
 soft         electrons  0.000000000000000E+000
 augmentation electrons   138.066493875592     
 soft         electrons  0.000000000000000E+000
 augmentation electrons   138.066493875592     
 soft         electrons  0.000000000000000E+000
 augmentation electrons   138.066493875592     
 soft         electrons  0.000000000000000E+000
 augmentation electrons   138.066493875592     
 soft         electrons  0.000000000000000E+000
 augmentation electrons   138.066493875592     
 soft         electrons  0.000000000000000E+000
 augmentation electrons   138.066493875592     
 soft         electrons  0.000000000000000E+000
 augmentation electrons   138.066493875592     
 soft         electrons  0.000000000000000E+000
 augmentation electrons   138.066493875592     
 soft         electrons  0.000000000000000E+000
 augmentation electrons   138.066493875592     
 soft         electrons  0.000000000000000E+000
 augmentation electrons   138.066493875592     
 soft         electrons  0.000000000000000E+000
 augmentation electrons   138.066493875592     
 soft         electrons  0.000000000000000E+000
 augmentation electrons   138.066493875592     
 soft         electrons  0.000000000000000E+000
 augmentation electrons   138.066493875592     
 soft         electrons  0.000000000000000E+000
 augmentation electrons   138.066493875592     
 soft         electrons  0.000000000000000E+000
 augmentation electrons   138.066493875592     
 soft         electrons  0.000000000000000E+000
 augmentation electrons   138.066493875592     
 soft         electrons  0.000000000000000E+000
 augmentation electrons   138.066493875592     
 augmentation electrons   138.066493875592     
 soft         electrons  0.000000000000000E+000
 augmentation electrons   138.066493875592     
 soft         electrons  0.000000000000000E+000
 augmentation electrons   138.066493875592     
 soft         electrons  0.000000000000000E+000
 augmentation electrons   138.066493875592     
 soft         electrons  0.000000000000000E+000
 augmentation electrons   138.066493875592     
 soft         electrons  0.000000000000000E+000
 augmentation electrons   138.066493875592     
 soft         electrons  0.000000000000000E+000
 augmentation electrons   138.066493875592     
 soft         electrons  0.000000000000000E+000
 augmentation electrons   138.066493875592     
 soft         electrons  0.000000000000000E+000
 augmentation electrons   138.066493875592     
 soft         electrons  0.000000000000000E+000
 augmentation electrons   138.066493875592     
 soft         electrons  0.000000000000000E+000
 augmentation electrons   138.066493875592     
 soft         electrons  0.000000000000000E+000
 augmentation electrons   138.066493875592     
 soft         electrons  0.000000000000000E+000
 augmentation electrons   138.066493875592     
 soft         electrons  0.000000000000000E+000
 augmentation electrons   138.066493875592     
 soft         electrons  0.000000000000000E+000
 augmentation electrons   138.066493875592     
 soft         electrons  0.000000000000000E+000
 augmentation electrons   138.066493875592     
 augmentation electrons   138.066493875592     
 soft         electrons  0.000000000000000E+000
 augmentation electrons   138.066493875592     
 soft         electrons  0.000000000000000E+000
 soft         electrons  0.000000000000000E+000
 augmentation electrons   138.066493875592     
 soft         electrons  0.000000000000000E+000
 augmentation electrons   138.066493875592     
 soft         electrons  0.000000000000000E+000
 total        electrons   138.066493875592     
 augmentation electrons   138.066493875592     
 soft         electrons  0.000000000000000E+000
 augmentation electrons   138.066493875592     
 soft         electrons  0.000000000000000E+000
 total        electrons   138.066493875592     
 augmentation electrons   138.066493875592     
 soft         electrons  0.000000000000000E+000
 augmentation electrons   138.066493875592     
 soft         electrons  0.000000000000000E+000
 total        electrons   138.066493875592     
 augmentation electrons   138.066493875592     
 soft         electrons  0.000000000000000E+000
 augmentation electrons   138.066493875592     
 soft         electrons  0.000000000000000E+000
 total        electrons   138.066493875592     
 augmentation electrons   138.066493875592     
 soft         electrons  0.000000000000000E+000
 augmentation electrons   138.066493875592     
 soft         electrons  0.000000000000000E+000
 total        electrons   138.066493875592     
 augmentation electrons   138.066493875592     
 soft         electrons  0.000000000000000E+000
 augmentation electrons   138.066493875592     
 soft         electrons  0.000000000000000E+000
 total        electrons   138.066493875592     
 augmentation electrons   138.066493875592     
 soft         electrons  0.000000000000000E+000
 augmentation electrons   138.066493875592     
 soft         electrons  0.000000000000000E+000
 total        electrons   138.066493875592     
 augmentation electrons   138.066493875592     
 soft         electrons  0.000000000000000E+000
 augmentation electrons   138.066493875592     
 soft         electrons  0.000000000000000E+000
 total        electrons   138.066493875592     
 augmentation electrons   138.066493875592     
 soft         electrons  0.000000000000000E+000
 augmentation electrons   138.066493875592     
 soft         electrons  0.000000000000000E+000
 total        electrons   138.066493875592     
 augmentation electrons   138.066493875592     
 augmentation electrons   138.066493875592     
 soft         electrons  0.000000000000000E+000
 total        electrons   138.066493875592     
 soft         electrons  0.000000000000000E+000
 augmentation electrons   138.066493875592     
 soft         electrons  0.000000000000000E+000
 total        electrons   138.066493875592     
 total        electrons   138.066493875592     
 soft         electrons  0.000000000000000E+000
 total        electrons   138.066493875592     
 total        electrons   138.066493875592     
 total        electrons   138.066493875592     
 total        electrons   138.066493875592     
 total        electrons   138.066493875592     
 total        electrons   138.066493875592     
 total        electrons   138.066493875592     
 total        electrons   138.066493875592     
 total        electrons   138.066493875592     
 total        electrons   138.066493875592     
 total        electrons   138.066493875592     
 total        electrons   138.066493875592     
 total        electrons   138.066493875592     
 total        electrons   138.066493875592     
 total        electrons   138.066493875592     
 total        electrons   138.066493875592     
 total        electrons   138.066493875592     
 total        electrons   138.066493875592     
 total        electrons   138.066493875592     
 total        electrons   138.066493875592     
 total        electrons   138.066493875592     
 total        electrons   138.066493875592     
 total        electrons   138.066493875592     
 total        electrons   138.066493875592     
 total        electrons   138.066493875592     
 total        electrons   138.066493875592     
 total        electrons   138.066493875592     
 total        electrons   138.066493875592     
 total        electrons   138.066493875592     
 total        electrons   138.066493875592     
 total        electrons   138.066493875592     
 total        electrons   138.066493875592     
 total        electrons   138.066493875592     
 total        electrons   138.066493875592     
 total        electrons   138.066493875592     
 total        electrons   138.066493875592     
 total        electrons   138.066493875592     
 total        electrons   138.066493875592     
 total        electrons   138.066493875592     
 total        electrons   138.066493875592     
 total        electrons   138.066493875592     
 total        electrons   138.066493875592     
 total        electrons   138.066493875592     
 total        electrons   138.066493875592     
 total        electrons   138.066493875592     
 total        electrons   138.066493875592     
 total        electrons   138.066493875592     
 total        electrons   138.066493875592     
 total        electrons   138.066493875592     
 total        electrons   138.066493875592     
 total        electrons   138.066493875592     
 total        electrons   138.066493875592     
 total        electrons   138.066493875592     
 total        electrons   138.066493875592     
 total        electrons   138.066493875592     
 total        electrons   138.066493875592     
 total        electrons   138.066493875592     
 total        electrons   138.066493875592     
 total        electrons   138.066493875592     
 total        electrons   138.066493875592     
 augmentation electrons   482.250165693460     
 soft         electrons  0.000000000000000E+000
 augmentation electrons   482.250165693460     
 soft         electrons  0.000000000000000E+000
 augmentation electrons   482.250165693460     
 soft         electrons  0.000000000000000E+000
 augmentation electrons   482.250165693460     
 soft         electrons  0.000000000000000E+000
 augmentation electrons   482.250165693460     
 soft         electrons  0.000000000000000E+000
 augmentation electrons   482.250165693460     
 soft         electrons  0.000000000000000E+000
 augmentation electrons   482.250165693460     
 soft         electrons  0.000000000000000E+000
 augmentation electrons   482.250165693460     
 soft         electrons  0.000000000000000E+000
 augmentation electrons   482.250165693460     
 soft         electrons  0.000000000000000E+000
 augmentation electrons   482.250165693460     
 soft         electrons  0.000000000000000E+000
 augmentation electrons   482.250165693460     
 soft         electrons  0.000000000000000E+000
 augmentation electrons   482.250165693460     
 soft         electrons  0.000000000000000E+000
 augmentation electrons   482.250165693460     
 augmentation electrons   482.250165693460     
 soft         electrons  0.000000000000000E+000
 augmentation electrons   482.250165693460     
 soft         electrons  0.000000000000000E+000
 augmentation electrons   482.250165693460     
 soft         electrons  0.000000000000000E+000
 augmentation electrons   482.250165693460     
 soft         electrons  0.000000000000000E+000
 augmentation electrons   482.250165693460     
 soft         electrons  0.000000000000000E+000
 augmentation electrons   482.250165693460     
 soft         electrons  0.000000000000000E+000
 augmentation electrons   482.250165693460     
 soft         electrons  0.000000000000000E+000
 augmentation electrons   482.250165693460     
 soft         electrons  0.000000000000000E+000
 augmentation electrons   482.250165693460     
 soft         electrons  0.000000000000000E+000
 augmentation electrons   482.250165693460     
 soft         electrons  0.000000000000000E+000
 augmentation electrons   482.250165693460     
 soft         electrons  0.000000000000000E+000
 augmentation electrons   482.250165693460     
 soft         electrons  0.000000000000000E+000
 augmentation electrons   482.250165693460     
 augmentation electrons   482.250165693460     
 soft         electrons  0.000000000000000E+000
 augmentation electrons   482.250165693460     
 soft         electrons  0.000000000000000E+000
 augmentation electrons   482.250165693460     
 soft         electrons  0.000000000000000E+000
 augmentation electrons   482.250165693460     
 augmentation electrons   482.250165693460     
 soft         electrons  0.000000000000000E+000
 augmentation electrons   482.250165693460     
 soft         electrons  0.000000000000000E+000
 augmentation electrons   482.250165693460     
 soft         electrons  0.000000000000000E+000
 augmentation electrons   482.250165693460     
 soft         electrons  0.000000000000000E+000
 augmentation electrons   482.250165693460     
 soft         electrons  0.000000000000000E+000
 augmentation electrons   482.250165693460     
 soft         electrons  0.000000000000000E+000
 augmentation electrons   482.250165693460     
 soft         electrons  0.000000000000000E+000
 augmentation electrons   482.250165693460     
 soft         electrons  0.000000000000000E+000
 augmentation electrons   482.250165693460     
 soft         electrons  0.000000000000000E+000
 augmentation electrons   482.250165693460     
 soft         electrons  0.000000000000000E+000
 augmentation electrons   482.250165693460     
 soft         electrons  0.000000000000000E+000
 augmentation electrons   482.250165693460     
 soft         electrons  0.000000000000000E+000
 augmentation electrons   482.250165693460     
 soft         electrons  0.000000000000000E+000
 augmentation electrons   482.250165693460     
 soft         electrons  0.000000000000000E+000
 augmentation electrons   482.250165693460     
 soft         electrons  0.000000000000000E+000
 augmentation electrons   482.250165693460     
 soft         electrons  0.000000000000000E+000
 augmentation electrons   482.250165693460     
 soft         electrons  0.000000000000000E+000
 augmentation electrons   482.250165693460     
 soft         electrons  0.000000000000000E+000
 augmentation electrons   482.250165693460     
 soft         electrons  0.000000000000000E+000
 augmentation electrons   482.250165693460     
 soft         electrons  0.000000000000000E+000
 augmentation electrons   482.250165693460     
 soft         electrons  0.000000000000000E+000
 soft         electrons  0.000000000000000E+000
 augmentation electrons   482.250165693460     
 soft         electrons  0.000000000000000E+000
 augmentation electrons   482.250165693460     
 soft         electrons  0.000000000000000E+000
 total        electrons   482.250165693460     
 augmentation electrons   482.250165693460     
 soft         electrons  0.000000000000000E+000
 augmentation electrons   482.250165693460     
 soft         electrons  0.000000000000000E+000
 total        electrons   482.250165693460     
 augmentation electrons   482.250165693460     
 soft         electrons  0.000000000000000E+000
 augmentation electrons   482.250165693460     
 soft         electrons  0.000000000000000E+000
 total        electrons   482.250165693460     
 augmentation electrons   482.250165693460     
 soft         electrons  0.000000000000000E+000
 augmentation electrons   482.250165693460     
 soft         electrons  0.000000000000000E+000
 total        electrons   482.250165693460     
 augmentation electrons   482.250165693460     
 soft         electrons  0.000000000000000E+000
 augmentation electrons   482.250165693460     
 soft         electrons  0.000000000000000E+000
 total        electrons   482.250165693460     
 augmentation electrons   482.250165693460     
 soft         electrons  0.000000000000000E+000
 augmentation electrons   482.250165693460     
 soft         electrons  0.000000000000000E+000
 total        electrons   482.250165693460     
 augmentation electrons   482.250165693460     
 soft         electrons  0.000000000000000E+000
 augmentation electrons   482.250165693460     
 soft         electrons  0.000000000000000E+000
 total        electrons   482.250165693460     
 augmentation electrons   482.250165693460     
 soft         electrons  0.000000000000000E+000
 augmentation electrons   482.250165693460     
 soft         electrons  0.000000000000000E+000
 total        electrons   482.250165693460     
 augmentation electrons   482.250165693460     
 soft         electrons  0.000000000000000E+000
 augmentation electrons   482.250165693460     
 soft         electrons  0.000000000000000E+000
 total        electrons   482.250165693460     
 augmentation electrons   482.250165693460     
 soft         electrons  0.000000000000000E+000
 augmentation electrons   482.250165693460     
 soft         electrons  0.000000000000000E+000
 total        electrons   482.250165693460     
 soft         electrons  0.000000000000000E+000
 augmentation electrons   482.250165693460     
 soft         electrons  0.000000000000000E+000
 total        electrons   482.250165693460     
 total        electrons   482.250165693460     
 soft         electrons  0.000000000000000E+000
 total        electrons   482.250165693460     
 total        electrons   482.250165693460     
 total        electrons   482.250165693460     
 total        electrons   482.250165693460     
 total        electrons   482.250165693460     
 total        electrons   482.250165693460     
 total        electrons   482.250165693460     
 total        electrons   482.250165693460     
 total        electrons   482.250165693460     
 total        electrons   482.250165693460     
 total        electrons   482.250165693460     
 total        electrons   482.250165693460     
 total        electrons   482.250165693460     
 total        electrons   482.250165693460     
 total        electrons   482.250165693460     
 total        electrons   482.250165693460     
 total        electrons   482.250165693460     
 total        electrons   482.250165693460     
 total        electrons   482.250165693460     
 total        electrons   482.250165693460     
 total        electrons   482.250165693460     
 total        electrons   482.250165693460     
 total        electrons   482.250165693460     
 total        electrons   482.250165693460     
 total        electrons   482.250165693460     
 total        electrons   482.250165693460     
 total        electrons   482.250165693460     
 total        electrons   482.250165693460     
 total        electrons   482.250165693460     
 total        electrons   482.250165693460     
 total        electrons   482.250165693460     
 total        electrons   482.250165693460     
 total        electrons   482.250165693460     
 total        electrons   482.250165693460     
 total        electrons   482.250165693460     
 total        electrons   482.250165693460     
 total        electrons   482.250165693460     
 total        electrons   482.250165693460     
 total        electrons   482.250165693460     
 total        electrons   482.250165693460     
 total        electrons   482.250165693460     
 total        electrons   482.250165693460     
 total        electrons   482.250165693460     
 total        electrons   482.250165693460     
 total        electrons   482.250165693460     
 total        electrons   482.250165693460     
 total        electrons   482.250165693460     
 total        electrons   482.250165693460     
 total        electrons   482.250165693460     
 total        electrons   482.250165693460     
 total        electrons   482.250165693460     
 total        electrons   482.250165693460     
 total        electrons   482.250165693460     
 total        electrons   482.250165693460     
 total        electrons   482.250165693460     
 total        electrons   482.250165693460     
 total        electrons   482.250165693460     
 total        electrons   482.250165693460     
 total        electrons   482.250165693460     
 total        electrons   482.250165693460     
 entering main loop
       N       E                     dE             d eps       ncg     rms          rms(c)
Total vdW correction in eV:     53.7179152
RMM:   1     0.124234768182E+04    0.12423E+04   -0.27940E+04   510   0.785E+02
RMM:   2     0.544653683595E+03   -0.69769E+03   -0.75681E+03   510   0.166E+02
RMM:   3     0.309992684186E+03   -0.23466E+03   -0.29878E+03   510   0.831E+01
RMM:   4     0.139602991328E+03   -0.17039E+03   -0.14669E+03   510   0.790E+01
RMM:   5     0.226991985525E+02   -0.11690E+03   -0.92791E+02   510   0.642E+01
RMM:   6    -0.424718710144E+02   -0.65171E+02   -0.49396E+02   510   0.463E+01
RMM:   7    -0.704060297081E+02   -0.27934E+02   -0.20948E+02   510   0.272E+01
RMM:   8    -0.782398970256E+02   -0.78339E+01   -0.63581E+01   510   0.142E+01
RMM:   9    -0.805657348100E+02   -0.23258E+01   -0.22354E+01  1468   0.769E+00
RMM:  10    -0.808643510924E+02   -0.29862E+00   -0.31812E+00  1749   0.283E+00
RMM:  11    -0.808629475188E+02    0.14036E-02   -0.16314E-01  1718   0.697E-01
RMM:  12    -0.808656687833E+02   -0.27213E-02   -0.34721E-02  1796   0.286E-01    0.202E+01
Total vdW correction in eV:     53.7919990
RMM:  13    -0.709846776047E+02    0.98810E+01   -0.61737E+01  1421   0.143E+01    0.791E+00
Total vdW correction in eV:     53.7611214
RMM:  14    -0.965260256189E+02   -0.25541E+02   -0.13398E+01  1615   0.364E+00    0.107E+01
Total vdW correction in eV:     53.7447293
RMM:  15    -0.695889235884E+02    0.26937E+02   -0.31621E+00  1431   0.156E+00    0.496E+00
Total vdW correction in eV:     53.6916835
RMM:  16    -0.695811325320E+02    0.77911E-02   -0.13775E+00  1597   0.198E+00    0.251E+00
Total vdW correction in eV:     53.6874075
RMM:  17    -0.692507405285E+02    0.33039E+00   -0.41120E-01  1348   0.133E+00    0.858E-01
Total vdW correction in eV:     53.6995426
RMM:  18    -0.692312099681E+02    0.19531E-01   -0.11485E-01  1556   0.638E-01    0.344E-01
Total vdW correction in eV:     53.7063292
RMM:  19    -0.692303637244E+02    0.84624E-03   -0.24111E-02  1335   0.302E-01    0.232E-01
Total vdW correction in eV:     53.7118858
RMM:  20    -0.692295701178E+02    0.79361E-03   -0.10607E-02  1488   0.203E-01    0.780E-02
Total vdW correction in eV:     53.7226863
RMM:  21    -0.692256387859E+02    0.39313E-02   -0.23327E-03  1444   0.861E-02    0.462E-02
Total vdW correction in eV:     53.7274037
RMM:  22    -0.692218897159E+02    0.37491E-02   -0.45331E-04  1528   0.330E-02    0.365E-02
Total vdW correction in eV:     53.7339555
RMM:  23    -0.692187543446E+02    0.31354E-02   -0.41442E-04  1193   0.392E-02    0.156E-02
Total vdW correction in eV:     53.7388673
RMM:  24    -0.692199013772E+02   -0.11470E-02   -0.20657E-04  1115   0.307E-02    0.106E-02
Total vdW correction in eV:     53.7418559
RMM:  25    -0.692205319902E+02   -0.63061E-03   -0.26930E-04  1061   0.332E-02    0.674E-03
Total vdW correction in eV:     53.7429040
RMM:  26    -0.692203448397E+02    0.18715E-03   -0.27143E-04  1025   0.261E-02    0.273E-03
Total vdW correction in eV:     53.7430567
RMM:  27    -0.692203431082E+02    0.17315E-05   -0.13393E-04   970   0.154E-02    0.205E-03
Total vdW correction in eV:     53.7429082
RMM:  28    -0.692203859130E+02   -0.42805E-04   -0.50518E-05   871   0.103E-02    0.711E-04
Total vdW correction in eV:     53.7427833
RMM:  29    -0.692203980574E+02   -0.12144E-04   -0.52142E-05   837   0.944E-03    0.769E-04
Total vdW correction in eV:     53.7427476
RMM:  30    -0.692204078687E+02   -0.98113E-05   -0.10362E-05   785   0.554E-03    0.441E-04
Total vdW correction in eV:     53.7426819
RMM:  31    -0.692204552575E+02   -0.47389E-04   -0.84705E-06   758   0.611E-03    0.119E-03
Total vdW correction in eV:     53.7426492
RMM:  32    -0.692204563382E+02   -0.10806E-05   -0.66274E-06   697   0.422E-03
Total vdW correction in eV:     53.7425823
Total vdW correction in eV:     53.7426334
   1 F= -.69220456E+02 E0= -.69220456E+02  d E =0.000000E+00
 augmentation electrons   4.46825169534436     
 soft         electrons   133.573399098455     
 augmentation electrons   4.46825169534436     
 soft         electrons   133.573399098455     
 augmentation electrons   4.46825169534436     
 soft         electrons   133.573399098455     
 augmentation electrons   4.46825169534436     
 soft         electrons   133.573399098455     
 augmentation electrons   4.46825169534436     
 augmentation electrons   4.46825169534436     
 soft         electrons   133.573399098455     
 augmentation electrons   4.46825169534436     
 soft         electrons   133.573399098455     
 augmentation electrons   4.46825169534436     
 soft         electrons   133.573399098455     
 augmentation electrons   4.46825169534436     
 soft         electrons   133.573399098455     
 augmentation electrons   4.46825169534436     
 soft         electrons   133.573399098455     
 augmentation electrons   4.46825169534436     
 soft         electrons   133.573399098455     
 augmentation electrons   4.46825169534436     
 soft         electrons   133.573399098455     
 augmentation electrons   4.46825169534436     
 soft         electrons   133.573399098455     
 augmentation electrons   4.46825169534436     
 soft         electrons   133.573399098455     
 augmentation electrons   4.46825169534436     
 augmentation electrons   4.46825169534436     
 soft         electrons   133.573399098455     
 augmentation electrons   4.46825169534436     
 soft         electrons   133.573399098455     
 augmentation electrons   4.46825169534436     
 soft         electrons   133.573399098455     
 augmentation electrons   4.46825169534436     
 soft         electrons   133.573399098455     
 augmentation electrons   4.46825169534436     
 soft         electrons   133.573399098455     
 augmentation electrons   4.46825169534436     
 soft         electrons   133.573399098455     
 augmentation electrons   4.46825169534436     
 soft         electrons   133.573399098455     
 augmentation electrons   4.46825169534436     
 soft         electrons   133.573399098455     
 augmentation electrons   4.46825169534436     
 soft         electrons   133.573399098455     
 augmentation electrons   4.46825169534436     
 soft         electrons   133.573399098455     
 augmentation electrons   4.46825169534436     
 soft         electrons   133.573399098455     
 augmentation electrons   4.46825169534436     
 soft         electrons   133.573399098455     
 augmentation electrons   4.46825169534436     
 soft         electrons   133.573399098455     
 augmentation electrons   4.46825169534436     
 soft         electrons   133.573399098455     
 augmentation electrons   4.46825169534436     
 soft         electrons   133.573399098455     
 augmentation electrons   4.46825169534436     
 augmentation electrons   4.46825169534436     
 soft         electrons   133.573399098455     
 augmentation electrons   4.46825169534436     
 soft         electrons   133.573399098455     
 augmentation electrons   4.46825169534436     
 soft         electrons   133.573399098455     
 augmentation electrons   4.46825169534436     
 soft         electrons   133.573399098455     
 augmentation electrons   4.46825169534436     
 soft         electrons   133.573399098455     
 augmentation electrons   4.46825169534436     
 soft         electrons   133.573399098455     
 augmentation electrons   4.46825169534436     
 soft         electrons   133.573399098455     
 augmentation electrons   4.46825169534436     
 soft         electrons   133.573399098455     
 augmentation electrons   4.46825169534436     
 soft         electrons   133.573399098455     
 augmentation electrons   4.46825169534436     
 soft         electrons   133.573399098455     
 augmentation electrons   4.46825169534436     
 soft         electrons   133.573399098455     
 augmentation electrons   4.46825169534436     
 soft         electrons   133.573399098455     
 augmentation electrons   4.46825169534436     
 soft         electrons   133.573399098455     
 augmentation electrons   4.46825169534436     
 soft         electrons   133.573399098455     
 augmentation electrons   4.46825169534436     
 soft         electrons   133.573399098455     
 augmentation electrons   4.46825169534436     
 soft         electrons   133.573399098455     
 augmentation electrons   4.46825169534436     
 soft         electrons   133.573399098455     
 augmentation electrons   4.46825169534436     
 soft         electrons   133.573399098455     
 soft         electrons   133.573399098455     
 augmentation electrons   4.46825169534436     
 soft         electrons   133.573399098455     
 augmentation electrons   4.46825169534436     
 soft         electrons   133.573399098455     
 total        electrons   138.041650793800     
 augmentation electrons   4.46825169534436     
 soft         electrons   133.573399098455     
 augmentation electrons   4.46825169534436     
 soft         electrons   133.573399098455     
 total        electrons   138.041650793800     
 augmentation electrons   4.46825169534436     
 soft         electrons   133.573399098455     
 augmentation electrons   4.46825169534436     
 soft         electrons   133.573399098455     
 total        electrons   138.041650793800     
 augmentation electrons   4.46825169534436     
 soft         electrons   133.573399098455     
 augmentation electrons   4.46825169534436     
 soft         electrons   133.573399098455     
 total        electrons   138.041650793800     
 augmentation electrons   4.46825169534436     
 soft         electrons   133.573399098455     
 augmentation electrons   4.46825169534436     
 soft         electrons   133.573399098455     
 total        electrons   138.041650793800     
 augmentation electrons   4.46825169534436     
 soft         electrons   133.573399098455     
 augmentation electrons   4.46825169534436     
 soft         electrons   133.573399098455     
 total        electrons   138.041650793800     
 augmentation electrons   4.46825169534436     
 soft         electrons   133.573399098455     
 augmentation electrons   4.46825169534436     
 soft         electrons   133.573399098455     
 total        electrons   138.041650793800     
 augmentation electrons   4.46825169534436     
 soft         electrons   133.573399098455     
 augmentation electrons   4.46825169534436     
 soft         electrons   133.573399098455     
 total        electrons   138.041650793800     
 augmentation electrons   4.46825169534436     
 soft         electrons   133.573399098455     
 augmentation electrons   4.46825169534436     
 soft         electrons   133.573399098455     
 total        electrons   138.041650793800     
 augmentation electrons   4.46825169534436     
 soft         electrons   133.573399098455     
 augmentation electrons   4.46825169534436     
 soft         electrons   133.573399098455     
 total        electrons   138.041650793800     
 augmentation electrons   4.46825169534436     
 soft         electrons   133.573399098455     
 augmentation electrons   4.46825169534436     
 soft         electrons   133.573399098455     
 total        electrons   138.041650793800     
 soft         electrons   133.573399098455     
 soft         electrons   133.573399098455     
 total        electrons   138.041650793800     
 total        electrons   138.041650793800     
 augmentation electrons   4.46825169534436     
 total        electrons   138.041650793800     
 total        electrons   138.041650793800     
 soft         electrons   133.573399098455     
 total        electrons   138.041650793800     
 total        electrons   138.041650793800     
 total        electrons   138.041650793800     
 total        electrons   138.041650793800     
 total        electrons   138.041650793800     
 total        electrons   138.041650793800     
 total        electrons   138.041650793800     
 total        electrons   138.041650793800     
 total        electrons   138.041650793800     
 total        electrons   138.041650793800     
 total        electrons   138.041650793800     
 total        electrons   138.041650793800     
 total        electrons   138.041650793800     
 total        electrons   138.041650793800     
 total        electrons   138.041650793800     
 total        electrons   138.041650793800     
 total        electrons   138.041650793800     
 total        electrons   138.041650793800     
 total        electrons   138.041650793800     
 total        electrons   138.041650793800     
 total        electrons   138.041650793800     
 total        electrons   138.041650793800     
 total        electrons   138.041650793800     
 total        electrons   138.041650793800     
 total        electrons   138.041650793800     
 total        electrons   138.041650793800     
 total        electrons   138.041650793800     
 total        electrons   138.041650793800     
 total        electrons   138.041650793800     
 total        electrons   138.041650793800     
 total        electrons   138.041650793800     
 total        electrons   138.041650793800     
 total        electrons   138.041650793800     
 total        electrons   138.041650793800     
 total        electrons   138.041650793800     
 total        electrons   138.041650793800     
 total        electrons   138.041650793800     
 total        electrons   138.041650793800     
 total        electrons   138.041650793800     
 total        electrons   138.041650793800     
 total        electrons   138.041650793800     
 total        electrons   138.041650793800     
 total        electrons   138.041650793800     
 total        electrons   138.041650793800     
 total        electrons   138.041650793800     
 total        electrons   138.041650793800     
 total        electrons   138.041650793800     
 total        electrons   138.041650793800     
 total        electrons   138.041650793800     
 total        electrons   138.041650793800     
 total        electrons   138.041650793800     
 total        electrons   138.041650793800     
 total        electrons   138.041650793800     
 total        electrons   138.041650793800     
 total        electrons   138.041650793800     
 total        electrons   138.041650793800     
 total        electrons   138.041650793800     
