<?xml version="1.0" encoding="ISO-8859-1"?>
<modeling>
 <generator>
  <i name="program" type="string">vasp </i>
  <i name="version" type="string">5.4.4.18Apr17-6-g9f103f2a35  </i>
  <i name="subversion" type="string">(build Jun 08 2018 12:06:12) complex            parallel </i>
  <i name="platform" type="string">LinuxIFC </i>
  <i name="date" type="string">2019 06 06 </i>
  <i name="time" type="string">07:23:23 </i>
 </generator>
 <incar>
  <i type="string" name="SYSTEM"> Mg_slab_in_a_box</i>
  <i type="string" name="PREC">accurate</i>
  <i type="string" name="ALGO"> V</i>
  <i type="int" name="NELM">   300</i>
  <i type="int" name="NELMIN">     6</i>
  <i name="EDIFF">      0.00000500</i>
  <i name="ENCUT">    520.00000000</i>
  <i type="string" name="LREAL"> AUTO</i>
  <i type="logical" name="LPLANE"> T  </i>
  <i type="int" name="ISMEAR">    -5</i>
  <i type="logical" name="LWAVE"> F  </i>
  <i type="logical" name="LCHARG"> T  </i>
  <i type="logical" name="LVTOT"> T  </i>
  <i type="logical" name="LVHAR"> T  </i>
  <i type="logical" name="LSCALU"> F  </i>
  <i type="logical" name="LASPH"> T  </i>
  <i type="logical" name="LAECHG"> T  </i>
  <v type="int" name="KPOINT_BSE">    -1     0     0     0</v>
  <i type="int" name="NELM">   300</i>
  <i type="string" name="GGA"> BO</i>
  <i name="PARAM1">      0.18333333</i>
  <i name="PARAM2">      0.22000000</i>
  <i type="logical" name="LUSE_VDW"> T  </i>
  <i name="AGGAC">      0.00000000</i>
  <i type="logical" name="LDIPOL"> T  </i>
  <i type="int" name="IDIPOL">     3</i>
  <i type="logical" name="LASPH"> T  </i>
 </incar>
 <structure name="primitive_cell" >
  <crystal>
   <varray name="basis" >
    <v>       9.55575275       0.00000000       0.00000000 </v>
    <v>      -4.77787638       8.27552464       0.00000000 </v>
    <v>       0.00000000       0.00000000      32.62509537 </v>
   </varray>
   <i name="volume">   2579.95558872 </i>
   <varray name="rec_basis" >
    <v>       0.10464900       0.06041913       0.00000000 </v>
    <v>       0.00000000       0.12083826       0.00000000 </v>
    <v>       0.00000000       0.00000000       0.03065125 </v>
   </varray>
  </crystal>
  <varray name="positions" >
   <v>       0.00000000       0.00000000       0.00000000 </v>
   <v>       0.00000002      -0.33333328       0.00000000 </v>
   <v>      -0.33333330      -0.33333328       0.00000000 </v>
   <v>      -0.33333332       0.00000000       0.00000000 </v>
   <v>       0.33333334       0.00000000       0.00000000 </v>
   <v>       0.00000001       0.33333336       0.00000000 </v>
   <v>       0.33333335       0.33333336       0.00000000 </v>
   <v>      -0.22222216      -0.11111106       0.07982145 </v>
   <v>       0.11111116      -0.11111106       0.07982145 </v>
   <v>       0.11111113       0.22222222       0.07982145 </v>
   <v>      -0.22222219      -0.44444439       0.07982145 </v>
   <v>      -0.22222221       0.22222222       0.07982145 </v>
   <v>       0.44444450       0.22222222       0.07982145 </v>
   <v>      -0.00138018      -0.00168967       0.15836701 </v>
   <v>       0.33333336      -0.33333328       0.00000000 </v>
   <v>      -0.33333332       0.33333336       0.00000000 </v>
   <v>       0.44444450      -0.44444439       0.07982145 </v>
   <v>       0.44444451      -0.11111106       0.07982145 </v>
   <v>       0.11111114      -0.44444439       0.07982145 </v>
   <v>       0.33190227       0.33102079       0.15689821 </v>
   <v>       0.33213146      -0.00160005       0.15742347 </v>
   <v>      -0.00003315       0.33339629       0.15746557 </v>
   <v>      -0.33377744      -0.00215260       0.15774255 </v>
   <v>      -0.00177505      -0.33443187       0.15798830 </v>
   <v>      -0.33189060      -0.33389400       0.15873658 </v>
   <v>       0.33179074      -0.33394605       0.15803771 </v>
   <v>      -0.33354947       0.33436078       0.15879495 </v>
   <v>       0.10687656      -0.11336739       0.23528040 </v>
   <v>       0.10624292       0.21823448       0.23569907 </v>
   <v>      -0.22220766      -0.11708776       0.24009168 </v>
   <v>      -0.22557199       0.22000575       0.23508586 </v>
   <v>       0.44565761       0.22377444       0.23568292 </v>
   <v>      -0.22898430      -0.45065938       0.24156651 </v>
   <v>       0.44388809      -0.44585948       0.23459192 </v>
   <v>       0.44399152      -0.11754136       0.23623778 </v>
   <v>       0.11426200      -0.44320501       0.23676903 </v>
   <v>       0.32847522      -0.00380755       0.30943942 </v>
   <v>       0.32015367       0.32119328       0.31116668 </v>
   <v>      -0.00720605       0.33153839       0.31214850 </v>
   <v>      -0.32989300       0.00399891       0.31341076 </v>
   <v>       0.00485366      -0.32941979       0.31489033 </v>
   <v>       0.00312480       0.00115967       0.33098091 </v>
   <v>      -0.33195823      -0.33208312       0.32629581 </v>
   <v>       0.43169401      -0.45245131       0.32319416 </v>
   <v>      -0.33879090       0.31678261       0.32594772 </v>
   <v>       0.32242851      -0.32989072       0.33036772 </v>
   <v>       0.00386029      -0.00258219       0.39586974 </v>
   <v>       0.26443652      -0.06965398       0.38674370 </v>
   <v>      -0.14251919       0.20141081       0.38739554 </v>
   <v>      -0.35904754      -0.37883790       0.38675248 </v>
   <v>       0.10146141       0.00618148       0.40902767 </v>
   <v>      -0.26041109      -0.30440739       0.40148712 </v>
   <v>      -0.02504499       0.07273925       0.40939291 </v>
   <v>      -0.37179333       0.45277870       0.39220786 </v>
   <v>       0.48327718      -0.32837253       0.39713480 </v>
   <v>      -0.37911912       0.34006321       0.38870450 </v>
   <v>       0.38795329       0.08941476       0.40828078 </v>
   <v>       0.38710451      -0.31377085       0.39224387 </v>
   <v>       0.29182850      -0.01590170       0.41391812 </v>
   <v>      -0.10514118       0.21356626       0.41636499 </v>
   <v>      -0.01056718       0.32234839       0.41703654 </v>
   <v>       0.39690153      -0.22365710       0.40865566 </v>
   <v>      -0.30437767       0.33328608       0.40802136 </v>
  </varray>
 </structure>
 <varray name="primitive_index" >
  <v type="int" >        1 </v>
  <v type="int" >        7 </v>
  <v type="int" >       25 </v>
  <v type="int" >       19 </v>
  <v type="int" >       10 </v>
  <v type="int" >        4 </v>
  <v type="int" >       13 </v>
  <v type="int" >       44 </v>
  <v type="int" >       32 </v>
  <v type="int" >       28 </v>
  <v type="int" >       42 </v>
  <v type="int" >       40 </v>
  <v type="int" >       34 </v>
  <v type="int" >        2 </v>
  <v type="int" >       16 </v>
  <v type="int" >       22 </v>
  <v type="int" >       36 </v>
  <v type="int" >       38 </v>
  <v type="int" >       30 </v>
  <v type="int" >       14 </v>
  <v type="int" >       11 </v>
  <v type="int" >        5 </v>
  <v type="int" >       20 </v>
  <v type="int" >        8 </v>
  <v type="int" >       26 </v>
  <v type="int" >       17 </v>
  <v type="int" >       23 </v>
  <v type="int" >       33 </v>
  <v type="int" >       29 </v>
  <v type="int" >       45 </v>
  <v type="int" >       41 </v>
  <v type="int" >       35 </v>
  <v type="int" >       43 </v>
  <v type="int" >       37 </v>
  <v type="int" >       39 </v>
  <v type="int" >       31 </v>
  <v type="int" >       12 </v>
  <v type="int" >       15 </v>
  <v type="int" >        6 </v>
  <v type="int" >       21 </v>
  <v type="int" >        9 </v>
  <v type="int" >        3 </v>
  <v type="int" >       27 </v>
  <v type="int" >       61 </v>
  <v type="int" >       24 </v>
  <v type="int" >       18 </v>
  <v type="int" >       46 </v>
  <v type="int" >       55 </v>
  <v type="int" >       57 </v>
  <v type="int" >       50 </v>
  <v type="int" >       53 </v>
  <v type="int" >       60 </v>
  <v type="int" >       52 </v>
  <v type="int" >       58 </v>
  <v type="int" >       63 </v>
  <v type="int" >       49 </v>
  <v type="int" >       54 </v>
  <v type="int" >       51 </v>
  <v type="int" >       47 </v>
  <v type="int" >       48 </v>
  <v type="int" >       56 </v>
  <v type="int" >       62 </v>
  <v type="int" >       59 </v>
 </varray>
 <kpoints>
  <generation param="Gamma">
   <v type="int" name="divisions">       3        3        1 </v>
   <v name="usershift">      0.00000000       0.00000000       0.00000000 </v>
   <v name="genvec1">      0.33333333       0.00000000       0.00000000 </v>
   <v name="genvec2">      0.00000000       0.33333333       0.00000000 </v>
   <v name="genvec3">      0.00000000       0.00000000       1.00000000 </v>
   <v name="shift">      0.00000000       0.00000000       0.00000000 </v>
  </generation>
  <varray name="kpointlist" >
   <v>       0.00000000       0.00000000       0.00000000 </v>
   <v>       0.33333333      -0.00000000       0.00000000 </v>
   <v>       0.00000000       0.33333333       0.00000000 </v>
   <v>       0.33333333       0.33333333       0.00000000 </v>
   <v>      -0.33333333       0.33333333       0.00000000 </v>
  </varray>
  <varray name="weights" >
   <v>       0.11111111 </v>
   <v>       0.22222222 </v>
   <v>       0.22222222 </v>
   <v>       0.22222222 </v>
   <v>       0.22222222 </v>
  </varray>
  <varray name="tetrahedronlist"  type="int" >
   <v type="int" >        2        2        3        3        4 </v>
   <v type="int" >        2        1        2        3        3 </v>
   <v type="int" >        2        1        1        2        3 </v>
   <v type="int" >        2        2        3        4        4 </v>
   <v type="int" >        2        2        2        3        4 </v>
   <v type="int" >        2        1        2        2        3 </v>
   <v type="int" >        2        2        4        4        5 </v>
   <v type="int" >        2        2        2        4        4 </v>
   <v type="int" >        4        2        2        2        4 </v>
   <v type="int" >        2        2        4        5        5 </v>
   <v type="int" >        2        2        2        4        5 </v>
   <v type="int" >        2        1        3        5        5 </v>
   <v type="int" >        2        1        2        5        5 </v>
   <v type="int" >        2        1        2        2        5 </v>
   <v type="int" >        2        1        3        3        5 </v>
   <v type="int" >        2        1        1        3        5 </v>
   <v type="int" >        2        1        1        2        5 </v>
   <v type="int" >        2        3        3        4        5 </v>
   <v type="int" >        4        3        3        3        4 </v>
   <v type="int" >        2        3        4        5        5 </v>
   <v type="int" >        2        3        4        4        5 </v>
   <v type="int" >        2        3        3        4        4 </v>
   <v type="int" >        4        4        5        5        5 </v>
   <v type="int" >        2        4        4        5        5 </v>
  </varray>
  <i name="volumeweight">      0.01851852 </i>
 </kpoints>
 <parameters>
  <separator name="general" >
   <i type="string" name="SYSTEM">Mg_slab_in_a_box</i>
   <i type="logical" name="LCOMPAT"> F  </i>
  </separator>
  <separator name="electronic" >
   <i type="string" name="PREC">accura</i>
   <i name="ENMAX">    520.00000000</i>
   <i name="ENAUG">    605.39200000</i>
   <i name="EDIFF">      0.00000500</i>
   <i type="int" name="IALGO">    48</i>
   <i type="int" name="IWAVPR">    10</i>
   <i type="int" name="NBANDS">   102</i>
   <i name="NELECT">    138.00000000</i>
   <i type="int" name="TURBO">     0</i>
   <i type="int" name="IRESTART">     0</i>
   <i type="int" name="NREBOOT">     0</i>
   <i type="int" name="NMIN">     0</i>
   <i name="EREF">      0.00000000</i>
   <separator name="electronic smearing" >
    <i type="int" name="ISMEAR">    -5</i>
    <i name="SIGMA">      0.20000000</i>
    <i name="KSPACING">      0.50000000</i>
    <i type="logical" name="KGAMMA"> T  </i>
   </separator>
   <separator name="electronic projectors" >
    <i type="logical" name="LREAL"> T  </i>
    <v name="ROPT">     -0.00025000     -0.00025000     -0.00025000</v>
    <i type="int" name="LMAXPAW">  -100</i>
    <i type="int" name="LMAXMIX">     2</i>
    <i type="logical" name="NLSPLINE"> F  </i>
   </separator>
   <separator name="electronic startup" >
    <i type="int" name="ISTART">     0</i>
    <i type="int" name="ICHARG">     2</i>
    <i type="int" name="INIWAV">     1</i>
   </separator>
   <separator name="electronic spin" >
    <i type="int" name="ISPIN">     1</i>
    <i type="logical" name="LNONCOLLINEAR"> F  </i>
    <v name="MAGMOM">      1.00000000      1.00000000      1.00000000      1.00000000      1.00000000      1.00000000      1.00000000      1.00000000      1.00000000      1.00000000      1.00000000      1.00000000      1.00000000      1.00000000      1.00000000      1.00000000      1.00000000      1.00000000      1.00000000      1.00000000
      1.00000000      1.00000000      1.00000000      1.00000000      1.00000000      1.00000000      1.00000000      1.00000000      1.00000000      1.00000000      1.00000000      1.00000000      1.00000000      1.00000000      1.00000000      1.00000000      1.00000000      1.00000000      1.00000000      1.00000000
      1.00000000      1.00000000      1.00000000      1.00000000      1.00000000      1.00000000      1.00000000      1.00000000      1.00000000      1.00000000      1.00000000      1.00000000      1.00000000      1.00000000      1.00000000      1.00000000      1.00000000      1.00000000      1.00000000      1.00000000
      1.00000000      1.00000000      1.00000000</v>
    <i name="NUPDOWN">     -1.00000000</i>
    <i type="logical" name="LSORBIT"> F  </i>
    <v name="SAXIS">      0.00000000      0.00000000      1.00000000</v>
    <i type="logical" name="LSPIRAL"> F  </i>
    <v name="QSPIRAL">      0.00000000      0.00000000      0.00000000</v>
    <i type="logical" name="LZEROZ"> F  </i>
   </separator>
   <separator name="electronic exchange-correlation" >
    <i type="logical" name="LASPH"> T  </i>
    <i type="logical" name="LMETAGGA"> F  </i>
   </separator>
   <separator name="electronic convergence" >
    <i type="int" name="NELM">   300</i>
    <i type="int" name="NELMDL">   -12</i>
    <i type="int" name="NELMIN">     6</i>
    <i name="ENINI">    520.00000000</i>
    <separator name="electronic convergence detail" >
     <i type="logical" name="LDIAG"> T  </i>
     <i type="logical" name="LSUBROT"> F  </i>
     <i name="WEIMIN">      0.00000000</i>
     <i name="EBREAK">      0.00000001</i>
     <i name="DEPER">      0.30000000</i>
     <i type="int" name="NRMM">     4</i>
     <i name="TIME">      0.40000000</i>
    </separator>
   </separator>
   <separator name="electronic mixer" >
    <i name="AMIX">      0.40000000</i>
    <i name="BMIX">      1.00000000</i>
    <i name="AMIN">      0.10000000</i>
    <i name="AMIX_MAG">      1.60000000</i>
    <i name="BMIX_MAG">      1.00000000</i>
    <separator name="electronic mixer details" >
     <i type="int" name="IMIX">     4</i>
     <i type="logical" name="MIXFIRST"> F  </i>
     <i type="int" name="MAXMIX">   -45</i>
     <i name="WC">    100.00000000</i>
     <i type="int" name="INIMIX">     1</i>
     <i type="int" name="MIXPRE">     1</i>
     <i type="int" name="MREMOVE">     5</i>
    </separator>
   </separator>
   <separator name="electronic dipolcorrection" >
    <i type="logical" name="LDIPOL"> T  </i>
    <i type="logical" name="LMONO"> F  </i>
    <i type="int" name="IDIPOL">     3</i>
    <i name="EPSILON">      1.00000000</i>
    <v name="DIPOL">   -100.00000000   -100.00000000   -100.00000000</v>
    <i name="EFIELD">      0.00000000</i>
   </separator>
  </separator>
  <separator name="grids" >
   <i type="int" name="NGX">    72</i>
   <i type="int" name="NGY">    72</i>
   <i type="int" name="NGZ">   250</i>
   <i type="int" name="NGXF">   144</i>
   <i type="int" name="NGYF">   144</i>
   <i type="int" name="NGZF">   500</i>
   <i type="logical" name="ADDGRID"> F  </i>
  </separator>
  <separator name="ionic" >
   <i type="int" name="NSW">     0</i>
   <i type="int" name="IBRION">    -1</i>
   <i type="int" name="MDALGO">     0</i>
   <i type="int" name="ISIF">     2</i>
   <i name="PSTRESS">      0.00000000</i>
   <i name="EDIFFG">      0.00005000</i>
   <i type="int" name="NFREE">     0</i>
   <i name="POTIM">      0.50000000</i>
   <i name="SMASS">     -3.00000000</i>
   <i name="SCALEE">      1.00000000</i>
  </separator>
  <separator name="ionic md" >
   <i name="TEBEG">      0.00010000</i>
   <i name="TEEND">      0.00010000</i>
   <i type="int" name="NBLOCK">     1</i>
   <i type="int" name="KBLOCK">     1</i>
   <i type="int" name="NPACO">   256</i>
   <i name="APACO">     16.00000000</i>
  </separator>
  <separator name="symmetry" >
   <i type="int" name="ISYM">     2</i>
   <i name="SYMPREC">      0.00001000</i>
  </separator>
  <separator name="dos" >
   <i type="int" name="LORBIT">     0</i>
   <v name="RWIGS">     -1.00000000     -1.00000000     -1.00000000</v>
   <i type="int" name="NEDOS">   301</i>
   <i name="EMIN">     10.00000000</i>
   <i name="EMAX">    -10.00000000</i>
   <i name="EFERMI">      0.00000000</i>
  </separator>
  <separator name="writing" >
   <i type="int" name="NWRITE">     2</i>
   <i type="logical" name="LWAVE"> F  </i>
   <i type="logical" name="LDOWNSAMPLE"> F  </i>
   <i type="logical" name="LCHARG"> T  </i>
   <i type="logical" name="LPARD"> F  </i>
   <i type="logical" name="LVTOT"> F  </i>
   <i type="logical" name="LVHAR"> T  </i>
   <i type="logical" name="LELF"> F  </i>
   <i type="logical" name="LOPTICS"> F  </i>
   <v name="STM">      0.00000000      0.00000000      0.00000000      0.00000000      0.00000000      0.00000000      0.00000000</v>
  </separator>
  <separator name="performance" >
   <i type="int" name="NPAR">     3</i>
   <i type="int" name="NSIM">     4</i>
   <i type="int" name="NBLK">    -1</i>
   <i type="logical" name="LPLANE"> T  </i>
   <i type="logical" name="LSCALAPACK"> T  </i>
   <i type="logical" name="LSCAAWARE"> F  </i>
   <i type="logical" name="LSCALU"> F  </i>
   <i type="logical" name="LASYNC"> F  </i>
   <i type="logical" name="LORBITALREAL"> F  </i>
  </separator>
  <separator name="miscellaneous" >
   <i type="int" name="IDIOT">     3</i>
   <i type="int" name="ISPECIAL">     0</i>
   <i type="logical" name="LMUSIC"> F  </i>
   <v name="POMASS">     24.30500000     16.00000000      1.00000000</v>
   <v name="DARWINR">      0.00000000      0.00000000      0.00000000</v>
   <v name="DARWINV">      1.00000000      1.00000000      1.00000000</v>
   <i type="logical" name="LCORR"> T  </i>
  </separator>
  <i type="logical" name="GGA_COMPAT"> T  </i>
  <i type="logical" name="LBERRY"> F  </i>
  <i type="int" name="ICORELEVEL">     0</i>
  <i type="logical" name="LDAU"> F  </i>
  <i type="int" name="I_CONSTRAINED_M">     0</i>
  <separator name="electronic exchange-correlation" >
   <i type="string" name="GGA">BO</i>
   <i type="int" name="VOSKOWN">     0</i>
   <i type="logical" name="LHFCALC"> F  </i>
   <i type="string" name="PRECFOCK"></i>
   <i type="logical" name="LSYMGRAD"> F  </i>
   <i type="logical" name="LHFONE"> F  </i>
   <i type="logical" name="LRHFCALC"> F  </i>
   <i type="logical" name="LTHOMAS"> F  </i>
   <i type="logical" name="LMODELHF"> F  </i>
   <i name="ENCUT4O">     -1.00000000</i>
   <i type="int" name="EXXOEP">     0</i>
   <i type="int" name="FOURORBIT">     0</i>
   <i name="AEXX">      0.00000000</i>
   <i name="HFALPHA">      0.00000000</i>
   <i name="MCALPHA">      0.00000000</i>
   <i name="ALDAX">      1.00000000</i>
   <i name="AGGAX">      1.00000000</i>
   <i name="ALDAC">      1.00000000</i>
   <i name="AGGAC">      0.00000000</i>
   <i type="int" name="NKREDX">     1</i>
   <i type="int" name="NKREDY">     1</i>
   <i type="int" name="NKREDZ">     1</i>
   <i type="logical" name="SHIFTRED"> F  </i>
   <i type="logical" name="ODDONLY"> F  </i>
   <i type="logical" name="EVENONLY"> F  </i>
   <i type="int" name="LMAXFOCK">     0</i>
   <i type="int" name="NMAXFOCKAE">     0</i>
   <i type="logical" name="LFOCKAEDFT"> F  </i>
   <i name="HFSCREEN">      0.00000000</i>
   <i name="HFSCREENC">      0.00000000</i>
   <i type="int" name="NBANDSGWLOW">     0</i>
  </separator>
  <separator name="vdW DFT" >
   <i type="logical" name="LUSE_VDW"> T  </i>
   <i name="Zab_VDW">     -0.84910000</i>
   <i name="PARAM1">      0.18333333</i>
   <i name="PARAM2">      0.22000000</i>
   <i name="PARAM3">      0.00000000</i>
  </separator>
  <separator name="model GW" >
   <i type="int" name="MODEL_GW">     0</i>
   <i name="MODEL_EPS0">     24.57100561</i>
   <i name="MODEL_ALPHA">      1.00000000</i>
  </separator>
  <separator name="linear response parameters" >
   <i type="logical" name="LEPSILON"> F  </i>
   <i type="logical" name="LRPA"> F  </i>
   <i type="logical" name="LNABLA"> F  </i>
   <i type="logical" name="LVEL"> F  </i>
   <i type="int" name="KINTER">     0</i>
   <i name="CSHIFT">      0.10000000</i>
   <i name="OMEGAMAX">     -1.00000000</i>
   <i name="DEG_THRESHOLD">      0.00200000</i>
   <i name="RTIME">     -0.10000000</i>
   <i name="WPLASMAI">      0.00000000</i>
   <v name="DFIELD">      0.00000000      0.00000000      0.00000000</v>
   <v name="WPLASMA">      0.00000000      0.00000000      0.00000000      0.00000000      0.00000000      0.00000000      0.00000000      0.00000000      0.00000000</v>
  </separator>
  <separator name="orbital magnetization" >
   <i type="logical" name="NUCIND"> F  </i>
   <v name="MAGPOS">      0.00000000      0.00000000      0.00000000</v>
   <i type="logical" name="LNICSALL"> T  </i>
   <i type="logical" name="ORBITALMAG"> F  </i>
   <i type="logical" name="LMAGBLOCH"> F  </i>
   <i type="logical" name="LCHIMAG"> F  </i>
   <i type="logical" name="LGAUGE"> T  </i>
   <i type="int" name="MAGATOM">     0</i>
   <v name="MAGDIPOL">      0.00000000      0.00000000      0.00000000</v>
   <v name="AVECCONST">      0.00000000      0.00000000      0.00000000</v>
  </separator>
  <separator name="response functions" >
   <i type="logical" name="LADDER"> F  </i>
   <i type="logical" name="LRPAFORCE"> F  </i>
   <i type="logical" name="LFXC"> F  </i>
   <i type="logical" name="LHARTREE"> T  </i>
   <i type="int" name="IBSE">     0</i>
   <v type="int" name="KPOINT">    -1     0     0     0</v>
   <i type="logical" name="LTCTE"> F  </i>
   <i type="logical" name="LTETE"> F  </i>
   <i type="logical" name="LTRIPLET"> F  </i>
   <i type="logical" name="LFXCEPS"> F  </i>
   <i type="logical" name="LFXHEG"> F  </i>
   <i type="int" name="NATURALO">     2</i>
   <i type="logical" name="L2ORDER"> F  </i>
   <i type="logical" name="LMP2LT"> F  </i>
   <i type="logical" name="LUSEW"> F  </i>
   <i name="ENCUTGW">     -2.00000000</i>
   <i name="ENCUTGWSOFT">     -2.00000000</i>
   <i name="ENCUTLF">     -1.00000000</i>
   <i type="int" name="LMAXMP2">    -1</i>
   <i name="SCISSOR">      0.00000000</i>
   <i type="int" name="NOMEGA">     0</i>
   <i type="int" name="NOMEGAR">     0</i>
   <i type="int" name="NBANDSGW">    -1</i>
   <i type="int" name="NBANDSO">    -1</i>
   <i type="int" name="NBANDSV">    -1</i>
   <i type="int" name="NELM">   300</i>
   <i type="int" name="NELMHF">     1</i>
   <i type="int" name="DIM">     3</i>
   <i type="int" name="ANTIRES">     0</i>
   <i name="OMEGAMAX">    -30.00000000</i>
   <i name="OMEGAMIN">    -30.00000000</i>
   <i name="OMEGATL">   -200.00000000</i>
   <i type="int" name="OMEGAGRID">   140</i>
   <i name="CSHIFT">     -0.10000000</i>
   <i type="logical" name="SELFENERGY"> F  </i>
   <i type="logical" name="LSPECTRAL"> F  </i>
   <i type="logical" name="LSPECTRALGW"> F  </i>
   <i type="logical" name="LSINGLES"> F  </i>
   <i type="logical" name="LFERMIGW"> F  </i>
   <i type="logical" name="ODDONLYGW"> F  </i>
   <i type="logical" name="EVENONLYGW"> F  </i>
   <i type="int" name="NKREDLFX">     1</i>
   <i type="int" name="NKREDLFY">     1</i>
   <i type="int" name="NKREDLFZ">     1</i>
   <i type="int" name="MAXMEM">  2800</i>
   <i type="int" name="TELESCOPE">     0</i>
   <i type="int" name="TAUPAR">     1</i>
   <i type="int" name="OMEGAPAR">    -1</i>
   <i name="LAMBDA">      1.00000000</i>
  </separator>
  <separator name="External order field" >
   <i name="OFIELD_KAPPA">      0.00000000</i>
   <v name="OFIELD_K">      0.00000000      0.00000000      0.00000000</v>
   <i name="OFIELD_Q6_NEAR">      0.00000000</i>
   <i name="OFIELD_Q6_FAR">      0.00000000</i>
   <i name="OFIELD_A">      0.00000000</i>
  </separator>
 </parameters>
 <atominfo>
  <atoms>      63 </atoms>
  <types>       3 </types>
  <array name="atoms" >
   <dimension dim="1">ion</dimension>
   <field type="string">element</field>
   <field type="int">atomtype</field>
   <set>
    <rc><c>Mg</c><c>   1</c></rc>
    <rc><c>Mg</c><c>   1</c></rc>
    <rc><c>Mg</c><c>   1</c></rc>
    <rc><c>Mg</c><c>   1</c></rc>
    <rc><c>Mg</c><c>   1</c></rc>
    <rc><c>Mg</c><c>   1</c></rc>
    <rc><c>Mg</c><c>   1</c></rc>
    <rc><c>Mg</c><c>   1</c></rc>
    <rc><c>Mg</c><c>   1</c></rc>
    <rc><c>Mg</c><c>   1</c></rc>
    <rc><c>Mg</c><c>   1</c></rc>
    <rc><c>Mg</c><c>   1</c></rc>
    <rc><c>Mg</c><c>   1</c></rc>
    <rc><c>Mg</c><c>   1</c></rc>
    <rc><c>Mg</c><c>   1</c></rc>
    <rc><c>Mg</c><c>   1</c></rc>
    <rc><c>Mg</c><c>   1</c></rc>
    <rc><c>Mg</c><c>   1</c></rc>
    <rc><c>Mg</c><c>   1</c></rc>
    <rc><c>Mg</c><c>   1</c></rc>
    <rc><c>Mg</c><c>   1</c></rc>
    <rc><c>Mg</c><c>   1</c></rc>
    <rc><c>Mg</c><c>   1</c></rc>
    <rc><c>Mg</c><c>   1</c></rc>
    <rc><c>Mg</c><c>   1</c></rc>
    <rc><c>Mg</c><c>   1</c></rc>
    <rc><c>Mg</c><c>   1</c></rc>
    <rc><c>Mg</c><c>   1</c></rc>
    <rc><c>Mg</c><c>   1</c></rc>
    <rc><c>Mg</c><c>   1</c></rc>
    <rc><c>Mg</c><c>   1</c></rc>
    <rc><c>Mg</c><c>   1</c></rc>
    <rc><c>Mg</c><c>   1</c></rc>
    <rc><c>Mg</c><c>   1</c></rc>
    <rc><c>Mg</c><c>   1</c></rc>
    <rc><c>Mg</c><c>   1</c></rc>
    <rc><c>Mg</c><c>   1</c></rc>
    <rc><c>Mg</c><c>   1</c></rc>
    <rc><c>Mg</c><c>   1</c></rc>
    <rc><c>Mg</c><c>   1</c></rc>
    <rc><c>Mg</c><c>   1</c></rc>
    <rc><c>Mg</c><c>   1</c></rc>
    <rc><c>Mg</c><c>   1</c></rc>
    <rc><c>Mg</c><c>   1</c></rc>
    <rc><c>Mg</c><c>   1</c></rc>
    <rc><c>O </c><c>   2</c></rc>
    <rc><c>O </c><c>   2</c></rc>
    <rc><c>O </c><c>   2</c></rc>
    <rc><c>O </c><c>   2</c></rc>
    <rc><c>O </c><c>   2</c></rc>
    <rc><c>O </c><c>   2</c></rc>
    <rc><c>H </c><c>   3</c></rc>
    <rc><c>H </c><c>   3</c></rc>
    <rc><c>H </c><c>   3</c></rc>
    <rc><c>H </c><c>   3</c></rc>
    <rc><c>H </c><c>   3</c></rc>
    <rc><c>H </c><c>   3</c></rc>
    <rc><c>H </c><c>   3</c></rc>
    <rc><c>H </c><c>   3</c></rc>
    <rc><c>H </c><c>   3</c></rc>
    <rc><c>H </c><c>   3</c></rc>
    <rc><c>H </c><c>   3</c></rc>
    <rc><c>H </c><c>   3</c></rc>
   </set>
  </array>
  <array name="atomtypes" >
   <dimension dim="1">type</dimension>
   <field type="int">atomspertype</field>
   <field type="string">element</field>
   <field>mass</field>
   <field>valence</field>
   <field type="string">pseudopotential</field>
   <set>
    <rc><c>  45</c><c>Mg</c><c>     24.30500000</c><c>      2.00000000</c><c>  PAW_PBE Mg 13Apr2007                  </c></rc>
    <rc><c>   6</c><c>O </c><c>     16.00000000</c><c>      6.00000000</c><c>  PAW_PBE O 08Apr2002                   </c></rc>
    <rc><c>  12</c><c>H </c><c>      1.00000000</c><c>      1.00000000</c><c>  PAW_PBE H 15Jun2001                   </c></rc>
   </set>
  </array>
 </atominfo>
 <structure name="initialpos" >
  <crystal>
   <varray name="basis" >
    <v>       9.55575275       0.00000000       0.00000000 </v>
    <v>      -4.77787638       8.27552464       0.00000000 </v>
    <v>       0.00000000       0.00000000      32.62509537 </v>
   </varray>
   <i name="volume">   2579.95558872 </i>
   <varray name="rec_basis" >
    <v>       0.10464900       0.06041913       0.00000000 </v>
    <v>       0.00000000       0.12083826       0.00000000 </v>
    <v>       0.00000000       0.00000000       0.03065125 </v>
   </varray>
  </crystal>
  <varray name="positions" >
   <v>       0.00000000       0.00000000       0.00000000 </v>
   <v>       0.99861982       0.99831033       0.15836701 </v>
   <v>       0.00312480       0.00115967       0.33098091 </v>
   <v>       0.00000001       0.33333336       0.00000000 </v>
   <v>       0.99996685       0.33339629       0.15746557 </v>
   <v>       0.99279395       0.33153839       0.31214850 </v>
   <v>       0.00000002       0.66666672       0.00000000 </v>
   <v>       0.99822495       0.66556813       0.15798830 </v>
   <v>       0.00485366       0.67058021       0.31489033 </v>
   <v>       0.33333334       0.00000000       0.00000000 </v>
   <v>       0.33213146       0.99839995       0.15742347 </v>
   <v>       0.32847522       0.99619245       0.30943942 </v>
   <v>       0.33333335       0.33333336       0.00000000 </v>
   <v>       0.33190227       0.33102079       0.15689821 </v>
   <v>       0.32015367       0.32119328       0.31116668 </v>
   <v>       0.33333336       0.66666672       0.00000000 </v>
   <v>       0.33179074       0.66605395       0.15803771 </v>
   <v>       0.32242851       0.67010928       0.33036772 </v>
   <v>       0.66666668       0.00000000       0.00000000 </v>
   <v>       0.66622256       0.99784740       0.15774255 </v>
   <v>       0.67010700       0.00399891       0.31341076 </v>
   <v>       0.66666668       0.33333336       0.00000000 </v>
   <v>       0.66645053       0.33436078       0.15879495 </v>
   <v>       0.66120910       0.31678261       0.32594772 </v>
   <v>       0.66666670       0.66666672       0.00000000 </v>
   <v>       0.66810940       0.66610600       0.15873658 </v>
   <v>       0.66804177       0.66791688       0.32629581 </v>
   <v>       0.11111113       0.22222222       0.07982145 </v>
   <v>       0.10624292       0.21823448       0.23569907 </v>
   <v>       0.11111114       0.55555561       0.07982145 </v>
   <v>       0.11426200       0.55679499       0.23676903 </v>
   <v>       0.11111116       0.88888894       0.07982145 </v>
   <v>       0.10687656       0.88663261       0.23528040 </v>
   <v>       0.44444450       0.22222222       0.07982145 </v>
   <v>       0.44565761       0.22377444       0.23568292 </v>
   <v>       0.44444450       0.55555561       0.07982145 </v>
   <v>       0.44388809       0.55414052       0.23459192 </v>
   <v>       0.44444451       0.88888894       0.07982145 </v>
   <v>       0.44399152       0.88245864       0.23623778 </v>
   <v>       0.77777779       0.22222222       0.07982145 </v>
   <v>       0.77442801       0.22000575       0.23508586 </v>
   <v>       0.77777781       0.55555561       0.07982145 </v>
   <v>       0.77101570       0.54934062       0.24156651 </v>
   <v>       0.77777784       0.88888894       0.07982145 </v>
   <v>       0.77779234       0.88291224       0.24009168 </v>
   <v>       0.00386029       0.99741781       0.39586974 </v>
   <v>       0.29182850       0.98409830       0.41391812 </v>
   <v>       0.89485882       0.21356626       0.41636499 </v>
   <v>       0.62088088       0.34006321       0.38870450 </v>
   <v>       0.64095246       0.62116210       0.38675248 </v>
   <v>       0.38710451       0.68622915       0.39224387 </v>
   <v>       0.97495501       0.07273925       0.40939291 </v>
   <v>       0.10146141       0.00618148       0.40902767 </v>
   <v>       0.38795329       0.08941476       0.40828078 </v>
   <v>       0.26443652       0.93034602       0.38674370 </v>
   <v>       0.98943282       0.32234839       0.41703654 </v>
   <v>       0.85748081       0.20141081       0.38739554 </v>
   <v>       0.62820667       0.45277870       0.39220786 </v>
   <v>       0.69562233       0.33328608       0.40802136 </v>
   <v>       0.73958891       0.69559261       0.40148712 </v>
   <v>       0.43169401       0.54754869       0.32319416 </v>
   <v>       0.39690153       0.77634290       0.40865566 </v>
   <v>       0.48327718       0.67162747       0.39713480 </v>
  </varray>
  <varray name="selective"  type="logical" >
   <v type="logical" >  F  F  F </v>
   <v type="logical" >  T  T  T </v>
   <v type="logical" >  T  T  T </v>
   <v type="logical" >  F  F  F </v>
   <v type="logical" >  T  T  T </v>
   <v type="logical" >  T  T  T </v>
   <v type="logical" >  F  F  F </v>
   <v type="logical" >  T  T  T </v>
   <v type="logical" >  T  T  T </v>
   <v type="logical" >  F  F  F </v>
   <v type="logical" >  T  T  T </v>
   <v type="logical" >  T  T  T </v>
   <v type="logical" >  F  F  F </v>
   <v type="logical" >  T  T  T </v>
   <v type="logical" >  T  T  T </v>
   <v type="logical" >  F  F  F </v>
   <v type="logical" >  T  T  T </v>
   <v type="logical" >  T  T  T </v>
   <v type="logical" >  F  F  F </v>
   <v type="logical" >  T  T  T </v>
   <v type="logical" >  T  T  T </v>
   <v type="logical" >  F  F  F </v>
   <v type="logical" >  T  T  T </v>
   <v type="logical" >  T  T  T </v>
   <v type="logical" >  F  F  F </v>
   <v type="logical" >  T  T  T </v>
   <v type="logical" >  T  T  T </v>
   <v type="logical" >  F  F  F </v>
   <v type="logical" >  T  T  T </v>
   <v type="logical" >  F  F  F </v>
   <v type="logical" >  T  T  T </v>
   <v type="logical" >  F  F  F </v>
   <v type="logical" >  T  T  T </v>
   <v type="logical" >  F  F  F </v>
   <v type="logical" >  T  T  T </v>
   <v type="logical" >  F  F  F </v>
   <v type="logical" >  T  T  T </v>
   <v type="logical" >  F  F  F </v>
   <v type="logical" >  T  T  T </v>
   <v type="logical" >  F  F  F </v>
   <v type="logical" >  T  T  T </v>
   <v type="logical" >  F  F  F </v>
   <v type="logical" >  T  T  T </v>
   <v type="logical" >  F  F  F </v>
   <v type="logical" >  T  T  T </v>
   <v type="logical" >  T  T  T </v>
   <v type="logical" >  T  T  T </v>
   <v type="logical" >  T  T  T </v>
   <v type="logical" >  T  T  T </v>
   <v type="logical" >  T  T  T </v>
   <v type="logical" >  T  T  T </v>
   <v type="logical" >  T  T  T </v>
   <v type="logical" >  T  T  T </v>
   <v type="logical" >  T  T  T </v>
   <v type="logical" >  T  T  T </v>
   <v type="logical" >  T  T  T </v>
   <v type="logical" >  T  T  T </v>
   <v type="logical" >  T  T  T </v>
   <v type="logical" >  T  T  T </v>
   <v type="logical" >  T  T  T </v>
   <v type="logical" >  T  T  T </v>
   <v type="logical" >  T  T  T </v>
   <v type="logical" >  T  T  T </v>
  </varray>
  <nose>
   <v>      -3.00000000       0.00000000       0.00010000       0.00010000 </v>
  </nose>
 </structure>
 <calculation>
  <scstep>
   <time name="diag">    0.48    0.48</time>
   <time name="diis">    1.05    1.05</time>
   <time name="orth">    0.07    0.07</time>
   <time name="total">    8.05    8.19</time>
   <dipole>
    <v name="dipole">      0.00000000       0.00000000      -0.00030916 </v>
    <i name="Tr[quadrupol]">  -1915.99573459 </i>
    <i name="Echarged">      0.00000000 </i>
    <i name="Edipol_quadrupol">      0.00000000 </i>
    <i name="Eion">      0.00000000 </i>
   </dipole>
   <energy>
    <i name="alphaZ">     63.16243464 </i>
    <i name="ewald">  12993.42535575 </i>
    <i name="hartreedc"> -16220.83321129 </i>
    <i name="XCdc">  -2051.10135395 </i>
    <i name="pawpsdc">   5135.15659847 </i>
    <i name="pawaedc">  -2719.01140655 </i>
    <i name="eentropy">      0.00000000 </i>
    <i name="bandstr">    213.56111963 </i>
    <i name="atom">   3827.98814510 </i>
    <i name="e_fr_energy">   1242.34768182 </i>
    <i name="e_wo_entrp">   1242.34768182 </i>
    <i name="e_0_energy">   1242.34768182 </i>
   </energy>
  </scstep>
  <scstep>
   <time name="diag">    0.49    0.51</time>
   <time name="diis">    1.05    1.05</time>
   <time name="orth">    0.07    0.07</time>
   <time name="total">    1.61    1.64</time>
   <dipole>
    <v name="dipole">      0.00000000       0.00000000      -0.00030916 </v>
    <i name="Tr[quadrupol]">  -1915.99573459 </i>
    <i name="Echarged">      0.00000000 </i>
    <i name="Edipol_quadrupol">      0.00000000 </i>
    <i name="Eion">      0.00000000 </i>
   </dipole>
   <energy>
    <i name="e_fr_energy">    544.65368359 </i>
    <i name="e_wo_entrp">    544.65368359 </i>
    <i name="e_0_energy">    544.65368359 </i>
   </energy>
  </scstep>
  <scstep>
   <time name="diag">    0.49    0.51</time>
   <time name="diis">    1.05    1.05</time>
   <time name="orth">    0.07    0.07</time>
   <time name="total">    1.61    1.63</time>
   <dipole>
    <v name="dipole">      0.00000000       0.00000000      -0.00030916 </v>
    <i name="Tr[quadrupol]">  -1915.99573459 </i>
    <i name="Echarged">      0.00000000 </i>
    <i name="Edipol_quadrupol">      0.00000000 </i>
    <i name="Eion">      0.00000000 </i>
   </dipole>
   <energy>
    <i name="e_fr_energy">    309.99268419 </i>
    <i name="e_wo_entrp">    309.99268419 </i>
    <i name="e_0_energy">    309.99268419 </i>
   </energy>
  </scstep>
  <scstep>
   <time name="diag">    0.49    0.51</time>
   <time name="diis">    1.05    1.05</time>
   <time name="orth">    0.07    0.07</time>
   <time name="total">    1.61    1.64</time>
   <dipole>
    <v name="dipole">      0.00000000       0.00000000      -0.00030916 </v>
    <i name="Tr[quadrupol]">  -1915.99573459 </i>
    <i name="Echarged">      0.00000000 </i>
    <i name="Edipol_quadrupol">      0.00000000 </i>
    <i name="Eion">      0.00000000 </i>
   </dipole>
   <energy>
    <i name="e_fr_energy">    139.60299133 </i>
    <i name="e_wo_entrp">    139.60299133 </i>
    <i name="e_0_energy">    139.60299133 </i>
   </energy>
  </scstep>
  <scstep>
   <time name="diag">    0.49    0.51</time>
   <time name="diis">    1.06    1.06</time>
   <time name="orth">    0.07    0.07</time>
   <time name="total">    1.62    1.64</time>
   <dipole>
    <v name="dipole">      0.00000000       0.00000000      -0.00030916 </v>
    <i name="Tr[quadrupol]">  -1915.99573459 </i>
    <i name="Echarged">      0.00000000 </i>
    <i name="Edipol_quadrupol">      0.00000000 </i>
    <i name="Eion">      0.00000000 </i>
   </dipole>
   <energy>
    <i name="e_fr_energy">     22.69919855 </i>
    <i name="e_wo_entrp">     22.69919855 </i>
    <i name="e_0_energy">     22.69919855 </i>
   </energy>
  </scstep>
  <scstep>
   <time name="diag">    0.50    0.52</time>
   <time name="diis">    1.07    1.07</time>
   <time name="orth">    0.07    0.07</time>
   <time name="total">    1.64    1.66</time>
   <dipole>
    <v name="dipole">      0.00000000       0.00000000      -0.00030916 </v>
    <i name="Tr[quadrupol]">  -1915.99573459 </i>
    <i name="Echarged">      0.00000000 </i>
    <i name="Edipol_quadrupol">      0.00000000 </i>
    <i name="Eion">      0.00000000 </i>
   </dipole>
   <energy>
    <i name="e_fr_energy">    -42.47187101 </i>
    <i name="e_wo_entrp">    -42.47187101 </i>
    <i name="e_0_energy">    -42.47187101 </i>
   </energy>
  </scstep>
  <scstep>
   <time name="diag">    0.49    0.51</time>
   <time name="diis">    1.05    1.05</time>
   <time name="orth">    0.07    0.07</time>
   <time name="total">    1.61    1.63</time>
   <dipole>
    <v name="dipole">      0.00000000       0.00000000      -0.00030916 </v>
    <i name="Tr[quadrupol]">  -1915.99573459 </i>
    <i name="Echarged">      0.00000000 </i>
    <i name="Edipol_quadrupol">      0.00000000 </i>
    <i name="Eion">      0.00000000 </i>
   </dipole>
   <energy>
    <i name="e_fr_energy">    -70.40602971 </i>
    <i name="e_wo_entrp">    -70.40602971 </i>
    <i name="e_0_energy">    -70.40602971 </i>
   </energy>
  </scstep>
  <scstep>
   <time name="diag">    0.49    0.51</time>
   <time name="diis">    1.06    1.06</time>
   <time name="orth">    0.07    0.07</time>
   <time name="total">    1.62    1.64</time>
   <dipole>
    <v name="dipole">      0.00000000       0.00000000      -0.00030916 </v>
    <i name="Tr[quadrupol]">  -1915.99573459 </i>
    <i name="Echarged">      0.00000000 </i>
    <i name="Edipol_quadrupol">      0.00000000 </i>
    <i name="Eion">      0.00000000 </i>
   </dipole>
   <energy>
    <i name="e_fr_energy">    -78.23989703 </i>
    <i name="e_wo_entrp">    -78.23989703 </i>
    <i name="e_0_energy">    -78.23989703 </i>
   </energy>
  </scstep>
  <scstep>
   <time name="diag">    0.48    0.51</time>
   <time name="diis">    2.70    2.70</time>
   <time name="orth">    0.07    0.07</time>
   <time name="total">    3.26    3.28</time>
   <dipole>
    <v name="dipole">      0.00000000       0.00000000      -0.00030916 </v>
    <i name="Tr[quadrupol]">  -1915.99573459 </i>
    <i name="Echarged">      0.00000000 </i>
    <i name="Edipol_quadrupol">      0.00000000 </i>
    <i name="Eion">      0.00000000 </i>
   </dipole>
   <energy>
    <i name="e_fr_energy">    -80.56573481 </i>
    <i name="e_wo_entrp">    -80.56573481 </i>
    <i name="e_0_energy">    -80.56573481 </i>
   </energy>
  </scstep>
  <scstep>
   <time name="diag">    0.48    0.51</time>
   <time name="diis">    3.15    3.15</time>
   <time name="orth">    0.07    0.07</time>
   <time name="total">    3.70    3.73</time>
   <dipole>
    <v name="dipole">      0.00000000       0.00000000      -0.00030916 </v>
    <i name="Tr[quadrupol]">  -1915.99573459 </i>
    <i name="Echarged">      0.00000000 </i>
    <i name="Edipol_quadrupol">      0.00000000 </i>
    <i name="Eion">      0.00000000 </i>
   </dipole>
   <energy>
    <i name="e_fr_energy">    -80.86435109 </i>
    <i name="e_wo_entrp">    -80.86435109 </i>
    <i name="e_0_energy">    -80.86435109 </i>
   </energy>
  </scstep>
  <scstep>
   <time name="diag">    0.49    0.51</time>
   <time name="diis">    3.09    3.09</time>
   <time name="orth">    0.07    0.07</time>
   <time name="total">    3.65    3.67</time>
   <dipole>
    <v name="dipole">      0.00000000       0.00000000      -0.00030916 </v>
    <i name="Tr[quadrupol]">  -1915.99573459 </i>
    <i name="Echarged">      0.00000000 </i>
    <i name="Edipol_quadrupol">      0.00000000 </i>
    <i name="Eion">      0.00000000 </i>
   </dipole>
   <energy>
    <i name="e_fr_energy">    -80.86294752 </i>
    <i name="e_wo_entrp">    -80.86294752 </i>
    <i name="e_0_energy">    -80.86294752 </i>
   </energy>
  </scstep>
  <scstep>
   <time name="diag">    0.49    0.51</time>
   <time name="diis">    3.26    3.26</time>
   <time name="orth">    0.07    0.07</time>
   <time name="total">    3.96    3.98</time>
   <dipole>
    <v name="dipole">      0.00000000       0.00000000      -0.00030916 </v>
    <i name="Tr[quadrupol]">  -1915.99573459 </i>
    <i name="Echarged">      0.00000000 </i>
    <i name="Edipol_quadrupol">      0.00000000 </i>
    <i name="Eion">      0.00000000 </i>
   </dipole>
   <energy>
    <i name="e_fr_energy">    -80.86566878 </i>
    <i name="e_wo_entrp">    -80.86566878 </i>
    <i name="e_0_energy">    -80.86566878 </i>
   </energy>
  </scstep>
  <scstep>
   <time name="diag">    0.49    0.49</time>
   <time name="diis">    2.57    2.57</time>
   <time name="orth">    0.07    0.07</time>
   <time name="total">    8.33    8.35</time>
   <dipole>
    <v name="dipole">      0.00000000       0.00000000       0.57251433 </v>
    <i name="Tr[quadrupol]">  -1927.42396085 </i>
    <i name="Echarged">      0.00000000 </i>
    <i name="Edipol_quadrupol">      0.00000000 </i>
    <i name="Eion">      0.00000000 </i>
   </dipole>
   <energy>
    <i name="e_fr_energy">    -70.98467760 </i>
    <i name="e_wo_entrp">    -70.98467760 </i>
    <i name="e_0_energy">    -70.98467760 </i>
   </energy>
  </scstep>
  <scstep>
   <time name="diag">    0.47    0.48</time>
   <time name="diis">    2.90    2.94</time>
   <time name="orth">    0.07    0.07</time>
   <time name="total">    8.62    8.69</time>
   <dipole>
    <v name="dipole">      0.00000000       0.00000000      -2.02778732 </v>
    <i name="Tr[quadrupol]">  -1912.21626498 </i>
    <i name="Echarged">      0.00000000 </i>
    <i name="Edipol_quadrupol">      0.00000000 </i>
    <i name="Eion">      0.00000000 </i>
   </dipole>
   <energy>
    <i name="e_fr_energy">    -96.52602562 </i>
    <i name="e_wo_entrp">    -96.52602562 </i>
    <i name="e_0_energy">    -96.52602562 </i>
   </energy>
  </scstep>
  <scstep>
   <time name="diag">    0.47    0.47</time>
   <time name="diis">    2.64    2.64</time>
   <time name="orth">    0.07    0.07</time>
   <time name="total">    8.38    8.41</time>
   <dipole>
    <v name="dipole">      0.00000000       0.00000000       0.13648976 </v>
    <i name="Tr[quadrupol]">  -1924.94755048 </i>
    <i name="Echarged">      0.00000000 </i>
    <i name="Edipol_quadrupol">      0.00000000 </i>
    <i name="Eion">      0.00000000 </i>
   </dipole>
   <energy>
    <i name="e_fr_energy">    -69.58892359 </i>
    <i name="e_wo_entrp">    -69.58892359 </i>
    <i name="e_0_energy">    -69.58892359 </i>
   </energy>
  </scstep>
  <scstep>
   <time name="diag">    0.48    0.48</time>
   <time name="diis">    2.87    2.90</time>
   <time name="orth">    0.07    0.07</time>
   <time name="total">    8.80    8.86</time>
   <dipole>
    <v name="dipole">      0.00000000       0.00000000       0.15776478 </v>
    <i name="Tr[quadrupol]">  -1929.95076243 </i>
    <i name="Echarged">      0.00000000 </i>
    <i name="Edipol_quadrupol">      0.00000000 </i>
    <i name="Eion">      0.00000000 </i>
   </dipole>
   <energy>
    <i name="e_fr_energy">    -69.58113253 </i>
    <i name="e_wo_entrp">    -69.58113253 </i>
    <i name="e_0_energy">    -69.58113253 </i>
   </energy>
  </scstep>
  <scstep>
   <time name="diag">    0.48    0.48</time>
   <time name="diis">    2.46    2.46</time>
   <time name="orth">    0.07    0.07</time>
   <time name="total">    8.21    8.23</time>
   <dipole>
    <v name="dipole">      0.00000000       0.00000000      -0.17281854 </v>
    <i name="Tr[quadrupol]">  -1928.33176031 </i>
    <i name="Echarged">      0.00000000 </i>
    <i name="Edipol_quadrupol">      0.00000000 </i>
    <i name="Eion">      0.00000000 </i>
   </dipole>
   <energy>
    <i name="e_fr_energy">    -69.25074053 </i>
    <i name="e_wo_entrp">    -69.25074053 </i>
    <i name="e_0_energy">    -69.25074053 </i>
   </energy>
  </scstep>
  <scstep>
   <time name="diag">    0.48    0.48</time>
   <time name="diis">    2.84    2.84</time>
   <time name="orth">    0.07    0.07</time>
   <time name="total">    8.58    8.61</time>
   <dipole>
    <v name="dipole">      0.00000000       0.00000000      -0.22495508 </v>
    <i name="Tr[quadrupol]">  -1929.11189335 </i>
    <i name="Echarged">      0.00000000 </i>
    <i name="Edipol_quadrupol">      0.00000000 </i>
    <i name="Eion">      0.00000000 </i>
   </dipole>
   <energy>
    <i name="e_fr_energy">    -69.23120997 </i>
    <i name="e_wo_entrp">    -69.23120997 </i>
    <i name="e_0_energy">    -69.23120997 </i>
   </energy>
  </scstep>
  <scstep>
   <time name="diag">    0.47    0.48</time>
   <time name="diis">    2.53    2.54</time>
   <time name="orth">    0.07    0.07</time>
   <time name="total">    8.30    8.33</time>
   <dipole>
    <v name="dipole">      0.00000000       0.00000000      -0.24382071 </v>
    <i name="Tr[quadrupol]">  -1930.11570580 </i>
    <i name="Echarged">      0.00000000 </i>
    <i name="Edipol_quadrupol">      0.00000000 </i>
    <i name="Eion">      0.00000000 </i>
   </dipole>
   <energy>
    <i name="e_fr_energy">    -69.23036372 </i>
    <i name="e_wo_entrp">    -69.23036372 </i>
    <i name="e_0_energy">    -69.23036372 </i>
   </energy>
  </scstep>
  <scstep>
   <time name="diag">    0.48    0.48</time>
   <time name="diis">    2.73    2.73</time>
   <time name="orth">    0.07    0.07</time>
   <time name="total">    8.49    8.51</time>
   <dipole>
    <v name="dipole">      0.00000000       0.00000000      -0.26554610 </v>
    <i name="Tr[quadrupol]">  -1930.60141621 </i>
    <i name="Echarged">      0.00000000 </i>
    <i name="Edipol_quadrupol">      0.00000000 </i>
    <i name="Eion">      0.00000000 </i>
   </dipole>
   <energy>
    <i name="e_fr_energy">    -69.22957012 </i>
    <i name="e_wo_entrp">    -69.22957012 </i>
    <i name="e_0_energy">    -69.22957012 </i>
   </energy>
  </scstep>
  <scstep>
   <time name="diag">    0.48    0.48</time>
   <time name="diis">    2.63    2.63</time>
   <time name="orth">    0.07    0.07</time>
   <time name="total">    8.39    8.41</time>
   <dipole>
    <v name="dipole">      0.00000000       0.00000000      -0.26776935 </v>
    <i name="Tr[quadrupol]">  -1931.17794542 </i>
    <i name="Echarged">      0.00000000 </i>
    <i name="Edipol_quadrupol">      0.00000000 </i>
    <i name="Eion">      0.00000000 </i>
   </dipole>
   <energy>
    <i name="e_fr_energy">    -69.22563879 </i>
    <i name="e_wo_entrp">    -69.22563879 </i>
    <i name="e_0_energy">    -69.22563879 </i>
   </energy>
  </scstep>
  <scstep>
   <time name="diag">    0.48    0.48</time>
   <time name="diis">    2.79    2.79</time>
   <time name="orth">    0.07    0.07</time>
   <time name="total">    8.54    8.56</time>
   <dipole>
    <v name="dipole">      0.00000000       0.00000000      -0.26446248 </v>
    <i name="Tr[quadrupol]">  -1931.33083380 </i>
    <i name="Echarged">      0.00000000 </i>
    <i name="Edipol_quadrupol">      0.00000000 </i>
    <i name="Eion">      0.00000000 </i>
   </dipole>
   <energy>
    <i name="e_fr_energy">    -69.22188972 </i>
    <i name="e_wo_entrp">    -69.22188972 </i>
    <i name="e_0_energy">    -69.22188972 </i>
   </energy>
  </scstep>
  <scstep>
   <time name="diag">    0.47    0.48</time>
   <time name="diis">    2.21    2.21</time>
   <time name="orth">    0.07    0.07</time>
   <time name="total">    7.97    7.99</time>
   <dipole>
    <v name="dipole">      0.00000000       0.00000000      -0.25983411 </v>
    <i name="Tr[quadrupol]">  -1931.52546592 </i>
    <i name="Echarged">      0.00000000 </i>
    <i name="Edipol_quadrupol">      0.00000000 </i>
    <i name="Eion">      0.00000000 </i>
   </dipole>
   <energy>
    <i name="e_fr_energy">    -69.21875434 </i>
    <i name="e_wo_entrp">    -69.21875434 </i>
    <i name="e_0_energy">    -69.21875434 </i>
   </energy>
  </scstep>
  <scstep>
   <time name="diag">    0.48    0.48</time>
   <time name="diis">    2.08    2.08</time>
   <time name="orth">    0.07    0.07</time>
   <time name="total">    7.82    7.85</time>
   <dipole>
    <v name="dipole">      0.00000000       0.00000000      -0.25227311 </v>
    <i name="Tr[quadrupol]">  -1931.69947443 </i>
    <i name="Echarged">      0.00000000 </i>
    <i name="Edipol_quadrupol">      0.00000000 </i>
    <i name="Eion">      0.00000000 </i>
   </dipole>
   <energy>
    <i name="e_fr_energy">    -69.21990138 </i>
    <i name="e_wo_entrp">    -69.21990138 </i>
    <i name="e_0_energy">    -69.21990138 </i>
   </energy>
  </scstep>
  <scstep>
   <time name="diag">    0.48    0.48</time>
   <time name="diis">    1.98    1.98</time>
   <time name="orth">    0.07    0.07</time>
   <time name="total">    7.74    7.76</time>
   <dipole>
    <v name="dipole">      0.00000000       0.00000000      -0.24547789 </v>
    <i name="Tr[quadrupol]">  -1931.83442290 </i>
    <i name="Echarged">      0.00000000 </i>
    <i name="Edipol_quadrupol">      0.00000000 </i>
    <i name="Eion">      0.00000000 </i>
   </dipole>
   <energy>
    <i name="e_fr_energy">    -69.22053199 </i>
    <i name="e_wo_entrp">    -69.22053199 </i>
    <i name="e_0_energy">    -69.22053199 </i>
   </energy>
  </scstep>
  <scstep>
   <time name="diag">    0.48    0.48</time>
   <time name="diis">    1.91    1.91</time>
   <time name="orth">    0.07    0.07</time>
   <time name="total">    7.66    7.68</time>
   <dipole>
    <v name="dipole">      0.00000000       0.00000000      -0.24119089 </v>
    <i name="Tr[quadrupol]">  -1931.87588222 </i>
    <i name="Echarged">      0.00000000 </i>
    <i name="Edipol_quadrupol">      0.00000000 </i>
    <i name="Eion">      0.00000000 </i>
   </dipole>
   <energy>
    <i name="e_fr_energy">    -69.22034484 </i>
    <i name="e_wo_entrp">    -69.22034484 </i>
    <i name="e_0_energy">    -69.22034484 </i>
   </energy>
  </scstep>
  <scstep>
   <time name="diag">    0.48    0.48</time>
   <time name="diis">    1.79    1.83</time>
   <time name="orth">    0.07    0.07</time>
   <time name="total">    7.82    7.89</time>
   <dipole>
    <v name="dipole">      0.00000000       0.00000000      -0.23890894 </v>
    <i name="Tr[quadrupol]">  -1931.90885988 </i>
    <i name="Echarged">      0.00000000 </i>
    <i name="Edipol_quadrupol">      0.00000000 </i>
    <i name="Eion">      0.00000000 </i>
   </dipole>
   <energy>
    <i name="e_fr_energy">    -69.22034311 </i>
    <i name="e_wo_entrp">    -69.22034311 </i>
    <i name="e_0_energy">    -69.22034311 </i>
   </energy>
  </scstep>
  <scstep>
   <time name="diag">    0.48    0.48</time>
   <time name="diis">    1.66    1.66</time>
   <time name="orth">    0.07    0.07</time>
   <time name="total">    7.42    7.44</time>
   <dipole>
    <v name="dipole">      0.00000000       0.00000000      -0.23789327 </v>
    <i name="Tr[quadrupol]">  -1931.90389531 </i>
    <i name="Echarged">      0.00000000 </i>
    <i name="Edipol_quadrupol">      0.00000000 </i>
    <i name="Eion">      0.00000000 </i>
   </dipole>
   <energy>
    <i name="e_fr_energy">    -69.22038591 </i>
    <i name="e_wo_entrp">    -69.22038591 </i>
    <i name="e_0_energy">    -69.22038591 </i>
   </energy>
  </scstep>
  <scstep>
   <time name="diag">    0.48    0.48</time>
   <time name="diis">    1.61    1.61</time>
   <time name="orth">    0.07    0.07</time>
   <time name="total">    7.37    7.39</time>
   <dipole>
    <v name="dipole">      0.00000000       0.00000000      -0.23793592 </v>
    <i name="Tr[quadrupol]">  -1931.77653306 </i>
    <i name="Echarged">      0.00000000 </i>
    <i name="Edipol_quadrupol">      0.00000000 </i>
    <i name="Eion">      0.00000000 </i>
   </dipole>
   <energy>
    <i name="e_fr_energy">    -69.22039806 </i>
    <i name="e_wo_entrp">    -69.22039806 </i>
    <i name="e_0_energy">    -69.22039806 </i>
   </energy>
  </scstep>
  <scstep>
   <time name="diag">    0.48    0.48</time>
   <time name="diis">    1.54    1.54</time>
   <time name="orth">    0.07    0.07</time>
   <time name="total">    7.29    7.32</time>
   <dipole>
    <v name="dipole">      0.00000000       0.00000000      -0.23780697 </v>
    <i name="Tr[quadrupol]">  -1932.08549634 </i>
    <i name="Echarged">      0.00000000 </i>
    <i name="Edipol_quadrupol">      0.00000000 </i>
    <i name="Eion">      0.00000000 </i>
   </dipole>
   <energy>
    <i name="e_fr_energy">    -69.22040787 </i>
    <i name="e_wo_entrp">    -69.22040787 </i>
    <i name="e_0_energy">    -69.22040787 </i>
   </energy>
  </scstep>
  <scstep>
   <time name="diag">    0.47    0.47</time>
   <time name="diis">    1.52    1.52</time>
   <time name="orth">    0.07    0.07</time>
   <time name="total">    7.36    7.39</time>
   <dipole>
    <v name="dipole">      0.00000000       0.00000000      -0.23832904 </v>
    <i name="Tr[quadrupol]">  -1932.14560321 </i>
    <i name="Echarged">      0.00000000 </i>
    <i name="Edipol_quadrupol">      0.00000000 </i>
    <i name="Eion">      0.00000000 </i>
   </dipole>
   <energy>
    <i name="e_fr_energy">    -69.22045526 </i>
    <i name="e_wo_entrp">    -69.22045526 </i>
    <i name="e_0_energy">    -69.22045526 </i>
   </energy>
  </scstep>
  <scstep>
   <time name="diag">    0.48    0.48</time>
   <time name="diis">    1.44    1.44</time>
   <time name="orth">    0.07    0.07</time>
   <time name="total">    7.06    7.09</time>
   <dipole>
    <v name="dipole">      0.00000000       0.00000000      -0.23863555 </v>
    <i name="Tr[quadrupol]">  -1932.14589800 </i>
    <i name="Echarged">      0.00000000 </i>
    <i name="Edipol_quadrupol">      0.00000000 </i>
    <i name="Eion">      0.00000000 </i>
   </dipole>
   <energy>
    <i name="alphaZ">     63.91628570 </i>
    <i name="ewald">  12993.42535575 </i>
    <i name="hartreedc"> -16457.01625412 </i>
    <i name="XCdc">  -2034.73491790 </i>
    <i name="pawpsdc">   5960.76593719 </i>
    <i name="pawaedc">  -3547.09320392 </i>
    <i name="eentropy">      0.00000000 </i>
    <i name="bandstr">   -876.47180414 </i>
    <i name="atom">   3827.98814510 </i>
    <i name="e_fr_energy">    -69.22045634 </i>
    <i name="e_wo_entrp">    -69.22045634 </i>
    <i name="e_0_energy">    -69.22045634 </i>
   </energy>
  </scstep>
  <structure>
   <crystal>
    <varray name="basis" >
     <v>       9.55575275       0.00000000       0.00000000 </v>
     <v>      -4.77787638       8.27552464       0.00000000 </v>
     <v>       0.00000000       0.00000000      32.62509537 </v>
    </varray>
    <i name="volume">   2579.95558872 </i>
    <varray name="rec_basis" >
     <v>       0.10464900       0.06041913       0.00000000 </v>
     <v>       0.00000000       0.12083826       0.00000000 </v>
     <v>       0.00000000       0.00000000       0.03065125 </v>
    </varray>
   </crystal>
   <varray name="positions" >
    <v>       0.00000000       0.00000000       0.00000000 </v>
    <v>       0.99861982       0.99831033       0.15836701 </v>
    <v>       0.00312480       0.00115967       0.33098091 </v>
    <v>       0.00000001       0.33333336       0.00000000 </v>
    <v>       0.99996685       0.33339629       0.15746557 </v>
    <v>       0.99279395       0.33153839       0.31214850 </v>
    <v>       0.00000002       0.66666672       0.00000000 </v>
    <v>       0.99822495       0.66556813       0.15798830 </v>
    <v>       0.00485366       0.67058021       0.31489033 </v>
    <v>       0.33333334       0.00000000       0.00000000 </v>
    <v>       0.33213146       0.99839995       0.15742347 </v>
    <v>       0.32847522       0.99619245       0.30943942 </v>
    <v>       0.33333335       0.33333336       0.00000000 </v>
    <v>       0.33190227       0.33102079       0.15689821 </v>
    <v>       0.32015367       0.32119328       0.31116668 </v>
    <v>       0.33333336       0.66666672       0.00000000 </v>
    <v>       0.33179074       0.66605395       0.15803771 </v>
    <v>       0.32242851       0.67010928       0.33036772 </v>
    <v>       0.66666668       0.00000000       0.00000000 </v>
    <v>       0.66622256       0.99784740       0.15774255 </v>
    <v>       0.67010700       0.00399891       0.31341076 </v>
    <v>       0.66666668       0.33333336       0.00000000 </v>
    <v>       0.66645053       0.33436078       0.15879495 </v>
    <v>       0.66120910       0.31678261       0.32594772 </v>
    <v>       0.66666670       0.66666672       0.00000000 </v>
    <v>       0.66810940       0.66610600       0.15873658 </v>
    <v>       0.66804177       0.66791688       0.32629581 </v>
    <v>       0.11111113       0.22222222       0.07982145 </v>
    <v>       0.10624292       0.21823448       0.23569907 </v>
    <v>       0.11111114       0.55555561       0.07982145 </v>
    <v>       0.11426200       0.55679499       0.23676903 </v>
    <v>       0.11111116       0.88888894       0.07982145 </v>
    <v>       0.10687656       0.88663261       0.23528040 </v>
    <v>       0.44444450       0.22222222       0.07982145 </v>
    <v>       0.44565761       0.22377444       0.23568292 </v>
    <v>       0.44444450       0.55555561       0.07982145 </v>
    <v>       0.44388809       0.55414052       0.23459192 </v>
    <v>       0.44444451       0.88888894       0.07982145 </v>
    <v>       0.44399152       0.88245864       0.23623778 </v>
    <v>       0.77777779       0.22222222       0.07982145 </v>
    <v>       0.77442801       0.22000575       0.23508586 </v>
    <v>       0.77777781       0.55555561       0.07982145 </v>
    <v>       0.77101570       0.54934062       0.24156651 </v>
    <v>       0.77777784       0.88888894       0.07982145 </v>
    <v>       0.77779234       0.88291224       0.24009168 </v>
    <v>       0.00386029       0.99741781       0.39586974 </v>
    <v>       0.29182850       0.98409830       0.41391812 </v>
    <v>       0.89485882       0.21356626       0.41636499 </v>
    <v>       0.62088088       0.34006321       0.38870450 </v>
    <v>       0.64095246       0.62116210       0.38675248 </v>
    <v>       0.38710451       0.68622915       0.39224387 </v>
    <v>       0.97495501       0.07273925       0.40939291 </v>
    <v>       0.10146141       0.00618148       0.40902767 </v>
    <v>       0.38795329       0.08941476       0.40828078 </v>
    <v>       0.26443652       0.93034602       0.38674370 </v>
    <v>       0.98943282       0.32234839       0.41703654 </v>
    <v>       0.85748081       0.20141081       0.38739554 </v>
    <v>       0.62820667       0.45277870       0.39220786 </v>
    <v>       0.69562233       0.33328608       0.40802136 </v>
    <v>       0.73958891       0.69559261       0.40148712 </v>
    <v>       0.43169401       0.54754869       0.32319416 </v>
    <v>       0.39690153       0.77634290       0.40865566 </v>
    <v>       0.48327718       0.67162747       0.39713480 </v>
   </varray>
  </structure>
  <varray name="forces" >
   <v>       0.02308736      -0.00503298       0.00515449 </v>
   <v>       0.02276766      -0.00878107       0.00445144 </v>
   <v>       0.01673173      -0.00763756       0.00220815 </v>
   <v>      -0.04558583      -0.01770794      -0.04167738 </v>
   <v>       0.00385943       0.00053512       0.00095289 </v>
   <v>       0.00558687      -0.00440812       0.01246488 </v>
   <v>       0.02401037       0.02382595      -0.01554407 </v>
   <v>      -0.00891035       0.01624912      -0.00402766 </v>
   <v>       0.00839497       0.01766008       0.01196212 </v>
   <v>      -0.01427913      -0.02525194      -0.02170502 </v>
   <v>      -0.01046173      -0.00590773      -0.00165256 </v>
   <v>      -0.01340785      -0.01735816       0.01799617 </v>
   <v>      -0.00323313       0.00480411      -0.03731635 </v>
   <v>       0.01129192      -0.02155412      -0.01185288 </v>
   <v>       0.00066371      -0.01124258       0.00459619 </v>
   <v>      -0.01169722       0.00117206      -0.02917059 </v>
   <v>      -0.01674647       0.01521880       0.00026558 </v>
   <v>      -0.01166257      -0.00920136       0.01357225 </v>
   <v>      -0.00391505       0.05228320      -0.04338036 </v>
   <v>      -0.00285221      -0.00585770      -0.00326902 </v>
   <v>       0.00124472       0.00966874       0.02040762 </v>
   <v>       0.05358692      -0.03460662      -0.02270222 </v>
   <v>      -0.00889010       0.00496495       0.00196791 </v>
   <v>       0.00123329       0.00418968       0.00214391 </v>
   <v>      -0.01872215      -0.00085630      -0.04497957 </v>
   <v>       0.01709275      -0.00099827      -0.00841581 </v>
   <v>       0.00505338       0.00771591       0.01211679 </v>
   <v>       0.01028122      -0.02660124       0.01915569 </v>
   <v>       0.00312257      -0.01256363      -0.00036597 </v>
   <v>       0.02203090       0.01144496       0.03176987 </v>
   <v>       0.00403439       0.00402183       0.00482378 </v>
   <v>      -0.03784966       0.00398023      -0.03868409 </v>
   <v>      -0.02154798       0.00075384       0.01820284 </v>
   <v>      -0.00024994       0.01736621       0.04035697 </v>
   <v>       0.00622070       0.01677938      -0.00496969 </v>
   <v>       0.00966388       0.01613624       0.00870301 </v>
   <v>       0.00939794      -0.00271479       0.00438685 </v>
   <v>       0.00375641      -0.03927567       0.04234561 </v>
   <v>       0.00227434      -0.01287643      -0.00661858 </v>
   <v>      -0.00815613       0.00826496      -0.01009676 </v>
   <v>      -0.00603050       0.00583982      -0.00480677 </v>
   <v>      -0.02595337      -0.00021944       0.07456998 </v>
   <v>      -0.00588206      -0.01041640      -0.01556942 </v>
   <v>       0.02324081      -0.02624586       0.04832785 </v>
   <v>       0.00589649       0.00179272      -0.00382181 </v>
   <v>      -0.00164047      -0.00219100       0.00335878 </v>
   <v>      -0.04158136       0.02960967       0.02226661 </v>
   <v>       0.00791575       0.00230355       0.01978646 </v>
   <v>      -0.01644586       0.03250292      -0.00176212 </v>
   <v>      -0.08115373       0.02826424       0.01545120 </v>
   <v>       0.06053462      -0.04032600      -0.01075849 </v>
   <v>       0.00628250       0.00151347      -0.00514613 </v>
   <v>       0.00953551       0.00080926      -0.01854801 </v>
   <v>      -0.03419010       0.02045172      -0.00224731 </v>
   <v>       0.00963325      -0.01916334       0.01947845 </v>
   <v>       0.00967824      -0.00032743      -0.01025341 </v>
   <v>      -0.00474321      -0.00488816      -0.00253374 </v>
   <v>      -0.03090503       0.02089990      -0.00345222 </v>
   <v>      -0.01722513       0.04372687      -0.00158596 </v>
   <v>      -0.06995822       0.04055557       0.01814400 </v>
   <v>       0.00381402      -0.00280293      -0.03230396 </v>
   <v>       0.08886043      -0.03755976       0.00953982 </v>
   <v>       0.08309750      -0.05073054      -0.05171024 </v>
  </varray>
  <varray name="stress" >
   <v>      -5.99333748       0.56170382      -0.01226460 </v>
   <v>       0.56170355      -5.42026659       0.32169660 </v>
   <v>      -0.01226473       0.32169657       0.45341976 </v>
  </varray>
  <energy>
   <i name="e_fr_energy">    -69.22045634 </i>
   <i name="e_wo_entrp">    -69.22045634 </i>
   <i name="e_0_energy">      0.00000000 </i>
  </energy>
  <time name="totalsc">  215.39  216.85</time>
  <eigenvalues>
   <array>
    <dimension dim="1">band</dimension>
    <dimension dim="2">kpoint</dimension>
    <dimension dim="3">spin</dimension>
    <field>eigene</field>
    <field>occ</field>
    <set>
     <set comment="spin 1">
      <set comment="kpoint 1">
       <r>  -23.5632    1.0000 </r>
       <r>  -23.5329    1.0000 </r>
       <r>  -23.2849    1.0000 </r>
       <r>  -23.2169    1.0000 </r>
       <r>  -23.0790    1.0000 </r>
       <r>  -21.0293    1.0000 </r>
       <r>  -11.6694    1.0000 </r>
       <r>  -11.6229    1.0000 </r>
       <r>  -11.3173    1.0000 </r>
       <r>  -11.0947    1.0000 </r>
       <r>  -10.8858    1.0000 </r>
       <r>   -8.6156    1.0000 </r>
       <r>   -8.5671    1.0000 </r>
       <r>   -8.4324    1.0000 </r>
       <r>   -8.2947    1.0000 </r>
       <r>   -7.7129    1.0000 </r>
       <r>   -7.5591    1.0000 </r>
       <r>   -7.5283    1.0000 </r>
       <r>   -7.0805    1.0000 </r>
       <r>   -6.5546    1.0000 </r>
       <r>   -6.3266    1.0000 </r>
       <r>   -6.2909    1.0000 </r>
       <r>   -6.1584    1.0000 </r>
       <r>   -5.8120    1.0000 </r>
       <r>   -5.7061    1.0000 </r>
       <r>   -5.5506    1.0000 </r>
       <r>   -5.4051    1.0000 </r>
       <r>   -5.3999    1.0000 </r>
       <r>   -5.3865    1.0000 </r>
       <r>   -5.3729    1.0000 </r>
       <r>   -5.3471    1.0000 </r>
       <r>   -5.3033    1.0000 </r>
       <r>   -5.1982    1.0000 </r>
       <r>   -4.8792    1.0000 </r>
       <r>   -4.8705    1.0000 </r>
       <r>   -4.8408    1.0000 </r>
       <r>   -4.8331    1.0000 </r>
       <r>   -4.7841    1.0000 </r>
       <r>   -4.7049    1.0000 </r>
       <r>   -4.6828    1.0000 </r>
       <r>   -4.4418    1.0000 </r>
       <r>   -3.9956    1.0000 </r>
       <r>   -3.9663    1.0000 </r>
       <r>   -3.9241    1.0000 </r>
       <r>   -3.8310    1.0000 </r>
       <r>   -3.8108    1.0000 </r>
       <r>   -3.4223    1.0000 </r>
       <r>   -3.1980    1.0000 </r>
       <r>   -2.8461    1.0000 </r>
       <r>   -2.7834    1.0000 </r>
       <r>   -2.7641    1.0000 </r>
       <r>   -2.6986    1.0000 </r>
       <r>   -2.6509    1.0000 </r>
       <r>   -1.9625    1.0000 </r>
       <r>   -1.7923    1.0000 </r>
       <r>   -1.4196    1.0000 </r>
       <r>   -1.3224    1.0000 </r>
       <r>   -1.2868    1.0000 </r>
       <r>   -1.2575    1.0000 </r>
       <r>   -1.2216    1.0000 </r>
       <r>   -1.2111    1.0000 </r>
       <r>   -1.2031    1.0000 </r>
       <r>   -1.1850    1.0000 </r>
       <r>   -1.1717    1.0000 </r>
       <r>   -1.1642    1.0000 </r>
       <r>   -1.1049    1.0000 </r>
       <r>   -0.8881    1.0000 </r>
       <r>   -0.8807    1.0000 </r>
       <r>   -0.7971    0.6951 </r>
       <r>   -0.6772    0.0000 </r>
       <r>   -0.6506    0.0000 </r>
       <r>   -0.5562    0.0000 </r>
       <r>   -0.4236    0.0000 </r>
       <r>   -0.2539    0.0000 </r>
       <r>   -0.1655    0.0000 </r>
       <r>   -0.0073    0.0000 </r>
       <r>    0.0664    0.0000 </r>
       <r>    0.1128    0.0000 </r>
       <r>    0.1296    0.0000 </r>
       <r>    0.1473    0.0000 </r>
       <r>    0.2693    0.0000 </r>
       <r>    0.3453    0.0000 </r>
       <r>    0.4400    0.0000 </r>
       <r>    0.8189    0.0000 </r>
       <r>    0.8721    0.0000 </r>
       <r>    0.8923    0.0000 </r>
       <r>    0.8967    0.0000 </r>
       <r>    0.9175    0.0000 </r>
       <r>    0.9396    0.0000 </r>
       <r>    0.9500    0.0000 </r>
       <r>    0.9782    0.0000 </r>
       <r>    1.0583    0.0000 </r>
       <r>    1.1567    0.0000 </r>
       <r>    1.1952    0.0000 </r>
       <r>    1.2399    0.0000 </r>
       <r>    1.4324    0.0000 </r>
       <r>    1.4451    0.0000 </r>
       <r>    1.4531    0.0000 </r>
       <r>    1.4753    0.0000 </r>
       <r>    1.5286    0.0000 </r>
       <r>    1.5498    0.0000 </r>
       <r>    1.6348    0.0000 </r>
      </set>
      <set comment="kpoint 2">
       <r>  -23.5603    1.0000 </r>
       <r>  -23.5347    1.0000 </r>
       <r>  -23.2968    1.0000 </r>
       <r>  -23.2023    1.0000 </r>
       <r>  -23.0828    1.0000 </r>
       <r>  -21.0293    1.0000 </r>
       <r>  -11.6683    1.0000 </r>
       <r>  -11.6227    1.0000 </r>
       <r>  -11.3220    1.0000 </r>
       <r>  -11.0878    1.0000 </r>
       <r>  -10.8891    1.0000 </r>
       <r>   -8.6005    1.0000 </r>
       <r>   -8.5704    1.0000 </r>
       <r>   -8.4539    1.0000 </r>
       <r>   -8.2782    1.0000 </r>
       <r>   -7.7088    1.0000 </r>
       <r>   -7.5319    1.0000 </r>
       <r>   -7.3288    1.0000 </r>
       <r>   -6.9354    1.0000 </r>
       <r>   -6.6211    1.0000 </r>
       <r>   -6.4560    1.0000 </r>
       <r>   -6.3357    1.0000 </r>
       <r>   -6.2609    1.0000 </r>
       <r>   -6.1715    1.0000 </r>
       <r>   -5.9485    1.0000 </r>
       <r>   -5.8502    1.0000 </r>
       <r>   -5.8388    1.0000 </r>
       <r>   -5.6993    1.0000 </r>
       <r>   -5.6094    1.0000 </r>
       <r>   -5.5423    1.0000 </r>
       <r>   -5.2663    1.0000 </r>
       <r>   -5.2456    1.0000 </r>
       <r>   -5.1487    1.0000 </r>
       <r>   -4.8935    1.0000 </r>
       <r>   -4.7905    1.0000 </r>
       <r>   -4.5661    1.0000 </r>
       <r>   -4.4347    1.0000 </r>
       <r>   -4.4119    1.0000 </r>
       <r>   -4.3422    1.0000 </r>
       <r>   -4.1511    1.0000 </r>
       <r>   -3.8810    1.0000 </r>
       <r>   -3.8338    1.0000 </r>
       <r>   -3.7410    1.0000 </r>
       <r>   -3.6061    1.0000 </r>
       <r>   -3.2202    1.0000 </r>
       <r>   -3.1860    1.0000 </r>
       <r>   -3.1218    1.0000 </r>
       <r>   -3.0641    1.0000 </r>
       <r>   -3.0323    1.0000 </r>
       <r>   -3.0090    1.0000 </r>
       <r>   -2.9506    1.0000 </r>
       <r>   -2.6495    1.0000 </r>
       <r>   -2.4831    1.0000 </r>
       <r>   -2.4157    1.0000 </r>
       <r>   -2.3487    1.0000 </r>
       <r>   -2.1338    1.0000 </r>
       <r>   -1.8652    1.0000 </r>
       <r>   -1.8239    1.0000 </r>
       <r>   -1.7485    1.0000 </r>
       <r>   -1.6784    1.0000 </r>
       <r>   -1.6521    1.0000 </r>
       <r>   -1.6108    1.0000 </r>
       <r>   -1.5779    1.0000 </r>
       <r>   -1.4610    1.0000 </r>
       <r>   -1.1029    1.0000 </r>
       <r>   -0.9963    1.0000 </r>
       <r>   -0.9655    1.0000 </r>
       <r>   -0.8965    1.0000 </r>
       <r>   -0.7699    0.4148 </r>
       <r>   -0.7570    0.1276 </r>
       <r>   -0.6880   -0.0268 </r>
       <r>   -0.6073    0.0000 </r>
       <r>   -0.3728    0.0000 </r>
       <r>   -0.2182    0.0000 </r>
       <r>   -0.1679    0.0000 </r>
       <r>   -0.1028    0.0000 </r>
       <r>   -0.0718    0.0000 </r>
       <r>    0.0616    0.0000 </r>
       <r>    0.1382    0.0000 </r>
       <r>    0.1850    0.0000 </r>
       <r>    0.2758    0.0000 </r>
       <r>    0.3565    0.0000 </r>
       <r>    0.3979    0.0000 </r>
       <r>    0.4592    0.0000 </r>
       <r>    0.5023    0.0000 </r>
       <r>    0.6472    0.0000 </r>
       <r>    0.7585    0.0000 </r>
       <r>    0.8150    0.0000 </r>
       <r>    0.9000    0.0000 </r>
       <r>    1.0262    0.0000 </r>
       <r>    1.0499    0.0000 </r>
       <r>    1.1215    0.0000 </r>
       <r>    1.1655    0.0000 </r>
       <r>    1.2274    0.0000 </r>
       <r>    1.2503    0.0000 </r>
       <r>    1.3010    0.0000 </r>
       <r>    1.4009    0.0000 </r>
       <r>    1.4963    0.0000 </r>
       <r>    1.5369    0.0000 </r>
       <r>    1.6025    0.0000 </r>
       <r>    1.8337    0.0000 </r>
       <r>    1.9824    0.0000 </r>
      </set>
      <set comment="kpoint 3">
       <r>  -23.5615    1.0000 </r>
       <r>  -23.5343    1.0000 </r>
       <r>  -23.2848    1.0000 </r>
       <r>  -23.2190    1.0000 </r>
       <r>  -23.0773    1.0000 </r>
       <r>  -21.0293    1.0000 </r>
       <r>  -11.6667    1.0000 </r>
       <r>  -11.6236    1.0000 </r>
       <r>  -11.3186    1.0000 </r>
       <r>  -11.0963    1.0000 </r>
       <r>  -10.8849    1.0000 </r>
       <r>   -8.6033    1.0000 </r>
       <r>   -8.5736    1.0000 </r>
       <r>   -8.4548    1.0000 </r>
       <r>   -8.2653    1.0000 </r>
       <r>   -7.7160    1.0000 </r>
       <r>   -7.5298    1.0000 </r>
       <r>   -7.3278    1.0000 </r>
       <r>   -6.9340    1.0000 </r>
       <r>   -6.6341    1.0000 </r>
       <r>   -6.4737    1.0000 </r>
       <r>   -6.3243    1.0000 </r>
       <r>   -6.2596    1.0000 </r>
       <r>   -6.1645    1.0000 </r>
       <r>   -5.9346    1.0000 </r>
       <r>   -5.8586    1.0000 </r>
       <r>   -5.8354    1.0000 </r>
       <r>   -5.6915    1.0000 </r>
       <r>   -5.5924    1.0000 </r>
       <r>   -5.5455    1.0000 </r>
       <r>   -5.3143    1.0000 </r>
       <r>   -5.2489    1.0000 </r>
       <r>   -5.1030    1.0000 </r>
       <r>   -4.9170    1.0000 </r>
       <r>   -4.7843    1.0000 </r>
       <r>   -4.5611    1.0000 </r>
       <r>   -4.4465    1.0000 </r>
       <r>   -4.4138    1.0000 </r>
       <r>   -4.3092    1.0000 </r>
       <r>   -4.1726    1.0000 </r>
       <r>   -3.8976    1.0000 </r>
       <r>   -3.8279    1.0000 </r>
       <r>   -3.7300    1.0000 </r>
       <r>   -3.6045    1.0000 </r>
       <r>   -3.2243    1.0000 </r>
       <r>   -3.1843    1.0000 </r>
       <r>   -3.1264    1.0000 </r>
       <r>   -3.0770    1.0000 </r>
       <r>   -3.0353    1.0000 </r>
       <r>   -3.0098    1.0000 </r>
       <r>   -2.9310    1.0000 </r>
       <r>   -2.6669    1.0000 </r>
       <r>   -2.4804    1.0000 </r>
       <r>   -2.4150    1.0000 </r>
       <r>   -2.3416    1.0000 </r>
       <r>   -2.1277    1.0000 </r>
       <r>   -1.8660    1.0000 </r>
       <r>   -1.8215    1.0000 </r>
       <r>   -1.7642    1.0000 </r>
       <r>   -1.6835    1.0000 </r>
       <r>   -1.6387    1.0000 </r>
       <r>   -1.6233    1.0000 </r>
       <r>   -1.5400    1.0000 </r>
       <r>   -1.4628    1.0000 </r>
       <r>   -1.0826    1.0000 </r>
       <r>   -1.0004    1.0000 </r>
       <r>   -0.9642    1.0000 </r>
       <r>   -0.9127    1.0000 </r>
       <r>   -0.7742    0.4549 </r>
       <r>   -0.7537    0.1088 </r>
       <r>   -0.7098   -0.0240 </r>
       <r>   -0.6078    0.0000 </r>
       <r>   -0.4025    0.0000 </r>
       <r>   -0.1990    0.0000 </r>
       <r>   -0.1473    0.0000 </r>
       <r>   -0.1188    0.0000 </r>
       <r>   -0.0652    0.0000 </r>
       <r>    0.0580    0.0000 </r>
       <r>    0.1324    0.0000 </r>
       <r>    0.2002    0.0000 </r>
       <r>    0.2967    0.0000 </r>
       <r>    0.3516    0.0000 </r>
       <r>    0.3869    0.0000 </r>
       <r>    0.4647    0.0000 </r>
       <r>    0.4910    0.0000 </r>
       <r>    0.6296    0.0000 </r>
       <r>    0.7641    0.0000 </r>
       <r>    0.8407    0.0000 </r>
       <r>    0.8789    0.0000 </r>
       <r>    1.0013    0.0000 </r>
       <r>    1.0669    0.0000 </r>
       <r>    1.1415    0.0000 </r>
       <r>    1.1554    0.0000 </r>
       <r>    1.2239    0.0000 </r>
       <r>    1.2568    0.0000 </r>
       <r>    1.3052    0.0000 </r>
       <r>    1.4096    0.0000 </r>
       <r>    1.5076    0.0000 </r>
       <r>    1.5395    0.0000 </r>
       <r>    1.5882    0.0000 </r>
       <r>    1.7743    0.0000 </r>
       <r>    1.9696    0.0000 </r>
      </set>
      <set comment="kpoint 4">
       <r>  -23.5597    1.0000 </r>
       <r>  -23.5347    1.0000 </r>
       <r>  -23.2987    1.0000 </r>
       <r>  -23.2017    1.0000 </r>
       <r>  -23.0821    1.0000 </r>
       <r>  -21.0294    1.0000 </r>
       <r>  -11.6658    1.0000 </r>
       <r>  -11.6235    1.0000 </r>
       <r>  -11.3235    1.0000 </r>
       <r>  -11.0878    1.0000 </r>
       <r>  -10.8893    1.0000 </r>
       <r>   -8.5963    1.0000 </r>
       <r>   -8.5851    1.0000 </r>
       <r>   -8.4482    1.0000 </r>
       <r>   -8.2631    1.0000 </r>
       <r>   -7.7111    1.0000 </r>
       <r>   -7.5357    1.0000 </r>
       <r>   -7.0084    1.0000 </r>
       <r>   -6.8336    1.0000 </r>
       <r>   -6.8151    1.0000 </r>
       <r>   -6.6594    1.0000 </r>
       <r>   -6.3960    1.0000 </r>
       <r>   -6.3531    1.0000 </r>
       <r>   -6.2140    1.0000 </r>
       <r>   -6.1739    1.0000 </r>
       <r>   -6.1356    1.0000 </r>
       <r>   -5.8748    1.0000 </r>
       <r>   -5.6913    1.0000 </r>
       <r>   -5.5486    1.0000 </r>
       <r>   -5.4007    1.0000 </r>
       <r>   -5.3435    1.0000 </r>
       <r>   -5.1051    1.0000 </r>
       <r>   -4.9253    1.0000 </r>
       <r>   -4.7793    1.0000 </r>
       <r>   -4.6670    1.0000 </r>
       <r>   -4.6564    1.0000 </r>
       <r>   -4.6077    1.0000 </r>
       <r>   -4.1776    1.0000 </r>
       <r>   -4.1531    1.0000 </r>
       <r>   -4.1087    1.0000 </r>
       <r>   -4.0745    1.0000 </r>
       <r>   -4.0432    1.0000 </r>
       <r>   -3.6203    1.0000 </r>
       <r>   -3.2281    1.0000 </r>
       <r>   -3.2078    1.0000 </r>
       <r>   -2.9567    1.0000 </r>
       <r>   -2.6562    1.0000 </r>
       <r>   -2.6330    1.0000 </r>
       <r>   -2.5909    1.0000 </r>
       <r>   -2.5827    1.0000 </r>
       <r>   -2.5735    1.0000 </r>
       <r>   -2.5523    1.0000 </r>
       <r>   -2.5487    1.0000 </r>
       <r>   -2.5364    1.0000 </r>
       <r>   -2.3741    1.0000 </r>
       <r>   -2.1271    1.0000 </r>
       <r>   -2.1160    1.0000 </r>
       <r>   -2.0932    1.0000 </r>
       <r>   -2.0575    1.0000 </r>
       <r>   -2.0415    1.0000 </r>
       <r>   -2.0112    1.0000 </r>
       <r>   -1.9672    1.0000 </r>
       <r>   -1.9446    1.0000 </r>
       <r>   -1.6500    1.0000 </r>
       <r>   -1.4560    1.0000 </r>
       <r>   -1.4324    1.0000 </r>
       <r>   -1.2387    1.0000 </r>
       <r>   -1.2014    1.0000 </r>
       <r>   -1.0895    1.4315 </r>
       <r>   -0.8575    1.0805 </r>
       <r>   -0.8019    0.1462 </r>
       <r>   -0.7735    0.0000 </r>
       <r>   -0.7239    0.0000 </r>
[...]
       <r>   -21.7116     0.0000    10.0000 </r>
       <r>   -21.6129     0.0000    10.0000 </r>
       <r>   -21.5141     0.0000    10.0000 </r>
       <r>   -21.4154     0.0000    10.0000 </r>
       <r>   -21.3166     0.0000    10.0000 </r>
       <r>   -21.2178     0.0000    10.0000 </r>
       <r>   -21.1191     0.0000    10.0000 </r>
       <r>   -21.0203     0.0000    12.0000 </r>
       <r>   -20.9216     0.0000    12.0000 </r>
       <r>   -20.8228     0.0000    12.0000 </r>
       <r>   -20.7241     0.0000    12.0000 </r>
       <r>   -20.6253     0.0000    12.0000 </r>
       <r>   -20.5265     0.0000    12.0000 </r>
       <r>   -20.4278     0.0000    12.0000 </r>
       <r>   -20.3290     0.0000    12.0000 </r>
       <r>   -20.2303     0.0000    12.0000 </r>
       <r>   -20.1315     0.0000    12.0000 </r>
       <r>   -20.0328     0.0000    12.0000 </r>
       <r>   -19.9340     0.0000    12.0000 </r>
       <r>   -19.8352     0.0000    12.0000 </r>
       <r>   -19.7365     0.0000    12.0000 </r>
       <r>   -19.6377     0.0000    12.0000 </r>
       <r>   -19.5390     0.0000    12.0000 </r>
       <r>   -19.4402     0.0000    12.0000 </r>
       <r>   -19.3415     0.0000    12.0000 </r>
       <r>   -19.2427     0.0000    12.0000 </r>
       <r>   -19.1439     0.0000    12.0000 </r>
       <r>   -19.0452     0.0000    12.0000 </r>
       <r>   -18.9464     0.0000    12.0000 </r>
       <r>   -18.8477     0.0000    12.0000 </r>
       <r>   -18.7489     0.0000    12.0000 </r>
       <r>   -18.6502     0.0000    12.0000 </r>
       <r>   -18.5514     0.0000    12.0000 </r>
       <r>   -18.4526     0.0000    12.0000 </r>
       <r>   -18.3539     0.0000    12.0000 </r>
       <r>   -18.2551     0.0000    12.0000 </r>
       <r>   -18.1564     0.0000    12.0000 </r>
       <r>   -18.0576     0.0000    12.0000 </r>
       <r>   -17.9589     0.0000    12.0000 </r>
       <r>   -17.8601     0.0000    12.0000 </r>
       <r>   -17.7613     0.0000    12.0000 </r>
       <r>   -17.6626     0.0000    12.0000 </r>
       <r>   -17.5638     0.0000    12.0000 </r>
       <r>   -17.4651     0.0000    12.0000 </r>
       <r>   -17.3663     0.0000    12.0000 </r>
       <r>   -17.2676     0.0000    12.0000 </r>
       <r>   -17.1688     0.0000    12.0000 </r>
       <r>   -17.0700     0.0000    12.0000 </r>
       <r>   -16.9713     0.0000    12.0000 </r>
       <r>   -16.8725     0.0000    12.0000 </r>
       <r>   -16.7738     0.0000    12.0000 </r>
       <r>   -16.6750     0.0000    12.0000 </r>
       <r>   -16.5763     0.0000    12.0000 </r>
       <r>   -16.4775     0.0000    12.0000 </r>
       <r>   -16.3787     0.0000    12.0000 </r>
       <r>   -16.2800     0.0000    12.0000 </r>
       <r>   -16.1812     0.0000    12.0000 </r>
       <r>   -16.0825     0.0000    12.0000 </r>
       <r>   -15.9837     0.0000    12.0000 </r>
       <r>   -15.8850     0.0000    12.0000 </r>
       <r>   -15.7862     0.0000    12.0000 </r>
       <r>   -15.6874     0.0000    12.0000 </r>
       <r>   -15.5887     0.0000    12.0000 </r>
       <r>   -15.4899     0.0000    12.0000 </r>
       <r>   -15.3912     0.0000    12.0000 </r>
       <r>   -15.2924     0.0000    12.0000 </r>
       <r>   -15.1937     0.0000    12.0000 </r>
       <r>   -15.0949     0.0000    12.0000 </r>
       <r>   -14.9961     0.0000    12.0000 </r>
       <r>   -14.8974     0.0000    12.0000 </r>
       <r>   -14.7986     0.0000    12.0000 </r>
       <r>   -14.6999     0.0000    12.0000 </r>
       <r>   -14.6011     0.0000    12.0000 </r>
       <r>   -14.5024     0.0000    12.0000 </r>
       <r>   -14.4036     0.0000    12.0000 </r>
       <r>   -14.3048     0.0000    12.0000 </r>
       <r>   -14.2061     0.0000    12.0000 </r>
       <r>   -14.1073     0.0000    12.0000 </r>
       <r>   -14.0086     0.0000    12.0000 </r>
       <r>   -13.9098     0.0000    12.0000 </r>
       <r>   -13.8110     0.0000    12.0000 </r>
       <r>   -13.7123     0.0000    12.0000 </r>
       <r>   -13.6135     0.0000    12.0000 </r>
       <r>   -13.5148     0.0000    12.0000 </r>
       <r>   -13.4160     0.0000    12.0000 </r>
       <r>   -13.3173     0.0000    12.0000 </r>
       <r>   -13.2185     0.0000    12.0000 </r>
       <r>   -13.1197     0.0000    12.0000 </r>
       <r>   -13.0210     0.0000    12.0000 </r>
       <r>   -12.9222     0.0000    12.0000 </r>
       <r>   -12.8235     0.0000    12.0000 </r>
       <r>   -12.7247     0.0000    12.0000 </r>
       <r>   -12.6260     0.0000    12.0000 </r>
       <r>   -12.5272     0.0000    12.0000 </r>
       <r>   -12.4284     0.0000    12.0000 </r>
       <r>   -12.3297     0.0000    12.0000 </r>
       <r>   -12.2309     0.0000    12.0000 </r>
       <r>   -12.1322     0.0000    12.0000 </r>
       <r>   -12.0334     0.0000    12.0000 </r>
       <r>   -11.9347     0.0000    12.0000 </r>
       <r>   -11.8359     0.0000    12.0000 </r>
       <r>   -11.7371     0.0000    12.0000 </r>
       <r>   -11.6384     0.0000    14.0000 </r>
       <r>   -11.5396     0.0000    16.0000 </r>
       <r>   -11.4409     0.0000    16.0000 </r>
       <r>   -11.3421     0.0000    16.0000 </r>
       <r>   -11.2434     0.0000    18.0000 </r>
       <r>   -11.1446     0.0000    18.0000 </r>
       <r>   -11.0458     0.0000    20.0000 </r>
       <r>   -10.9471     0.0000    20.0000 </r>
       <r>   -10.8483     0.0000    22.0000 </r>
       <r>   -10.7496     0.0000    22.0000 </r>
       <r>   -10.6508     0.0000    22.0000 </r>
       <r>   -10.5521     0.0000    22.0000 </r>
       <r>   -10.4533     0.0000    22.0000 </r>
       <r>   -10.3545     0.0000    22.0000 </r>
       <r>   -10.2558     0.0000    22.0000 </r>
       <r>   -10.1570     0.0000    22.0000 </r>
       <r>   -10.0583     0.0000    22.0000 </r>
       <r>    -9.9595     0.0000    22.0000 </r>
       <r>    -9.8608     0.0000    22.0000 </r>
       <r>    -9.7620     0.0000    22.0000 </r>
       <r>    -9.6632     0.0000    22.0000 </r>
       <r>    -9.5645     0.0000    22.0000 </r>
       <r>    -9.4657     0.0000    22.0000 </r>
       <r>    -9.3670     0.0000    22.0000 </r>
       <r>    -9.2682     0.0000    22.0000 </r>
       <r>    -9.1695     0.0000    22.0000 </r>
       <r>    -9.0707     0.0000    22.0000 </r>
       <r>    -8.9719     0.0000    22.0000 </r>
       <r>    -8.8732     0.0000    22.0000 </r>
       <r>    -8.7744     0.0000    22.0000 </r>
       <r>    -8.6757     0.0000    22.0000 </r>
       <r>    -8.5769   121.6584    25.0037 </r>
       <r>    -8.4782     0.0000    26.0000 </r>
       <r>    -8.3794     0.0000    28.0000 </r>
       <r>    -8.2806    47.4638    28.3346 </r>
       <r>    -8.1819     0.0000    30.0000 </r>
       <r>    -8.0831     0.0000    30.0000 </r>
       <r>    -7.9844     0.0000    30.0000 </r>
       <r>    -7.8856     0.0000    30.0000 </r>
       <r>    -7.7869     0.0000    30.0000 </r>
       <r>    -7.6881     0.0000    32.0000 </r>
       <r>    -7.5893     0.0000    32.0000 </r>
       <r>    -7.4906     1.2596    34.0238 </r>
       <r>    -7.3918     4.5575    34.3110 </r>
       <r>    -7.2931     7.4100    34.9454 </r>
       <r>    -7.1943     4.8391    35.5503 </r>
       <r>    -7.0956     2.2681    35.9012 </r>
       <r>    -6.9968     5.2492    36.2198 </r>
       <r>    -6.8980    16.8154    37.4582 </r>
       <r>    -6.7993     1.2293    38.0097 </r>
       <r>    -6.7005     8.9226    38.5110 </r>
       <r>    -6.6018    15.1392    39.8477 </r>
       <r>    -6.5030    10.6050    40.8295 </r>
       <r>    -6.4043     5.8080    41.7745 </r>
       <r>    -6.3055    28.5960    44.2555 </r>
       <r>    -6.2067    17.3588    45.8925 </r>
       <r>    -6.1080     7.1466    47.6648 </r>
       <r>    -6.0092    14.2236    48.7201 </r>
       <r>    -5.9105    13.8423    50.2957 </r>
       <r>    -5.8117     9.2648    52.7848 </r>
       <r>    -5.7130     4.6811    53.4735 </r>
       <r>    -5.6142     5.6990    55.4615 </r>
       <r>    -5.5154    28.0027    58.2752 </r>
       <r>    -5.4167     5.3629    59.9228 </r>
       <r>    -5.3179    32.5836    61.2964 </r>
       <r>    -5.2192    16.3985    63.0649 </r>
       <r>    -5.1204    13.3446    64.5904 </r>
       <r>    -5.0217     7.5464    65.6363 </r>
       <r>    -4.9229    11.1262    66.0450 </r>
       <r>    -4.8241    15.3554    68.0379 </r>
       <r>    -4.7254    15.0208    69.8345 </r>
       <r>    -4.6266    15.6335    70.8306 </r>
       <r>    -4.5279    15.2002    73.2390 </r>
       <r>    -4.4291     7.5480    75.1577 </r>
       <r>    -4.3304    18.4376    76.6182 </r>
       <r>    -4.2316    11.8136    78.2727 </r>
       <r>    -4.1328    36.8499    79.7794 </r>
       <r>    -4.0341     5.4618    80.4290 </r>
       <r>    -3.9353    23.0484    81.7549 </r>
       <r>    -3.8366    24.1159    84.1185 </r>
       <r>    -3.7378    13.1066    84.9029 </r>
       <r>    -3.6391     8.9208    86.6054 </r>
       <r>    -3.5403     7.8798    87.3524 </r>
       <r>    -3.4415     6.6987    88.0723 </r>
       <r>    -3.3428     6.7020    88.7226 </r>
       <r>    -3.2440     6.9916    89.3988 </r>
       <r>    -3.1453    17.6802    91.7799 </r>
       <r>    -3.0465    15.2124    93.6442 </r>
       <r>    -2.9478    34.1949    96.5507 </r>
       <r>    -2.8490    22.7849    99.5883 </r>
       <r>    -2.7502    10.6657   101.1850 </r>
       <r>    -2.6515    22.8853   102.5249 </r>
       <r>    -2.5527     5.0846   104.2439 </r>
       <r>    -2.4540    15.6882   106.6467 </r>
       <r>    -2.3552    50.8092   107.9615 </r>
       <r>    -2.2564     3.9558   109.2428 </r>
       <r>    -2.1577     2.8813   109.5804 </r>
       <r>    -2.0589     7.1587   111.3590 </r>
       <r>    -1.9602    19.1810   112.6092 </r>
       <r>    -1.8614    28.5387   115.3328 </r>
       <r>    -1.7627    30.9035   118.3315 </r>
       <r>    -1.6639    27.2108   121.3252 </r>
       <r>    -1.5651    21.9547   123.6713 </r>
       <r>    -1.4664    23.3295   125.8910 </r>
       <r>    -1.3676    12.0650   127.3254 </r>
       <r>    -1.2689     9.6904   128.3908 </r>
       <r>    -1.1701    12.7955   129.3993 </r>
       <r>    -1.0714    19.2157   131.7372 </r>
       <r>    -0.9726    19.4266   134.2292 </r>
       <r>    -0.8738     5.6968   136.6141 </r>
       <r>    -0.7751    79.2894   138.6772 </r>
       <r>    -0.6763    33.8838   142.1007 </r>
       <r>    -0.5776    12.7134   144.1514 </r>
       <r>    -0.4788     9.4385   144.8915 </r>
       <r>    -0.3801    23.3148   146.5821 </r>
       <r>    -0.2813    11.4775   147.7161 </r>
       <r>    -0.1825     6.4110   149.2272 </r>
       <r>    -0.0838     9.8671   151.6226 </r>
       <r>     0.0150    11.7521   153.9606 </r>
       <r>     0.1137    33.2513   157.0905 </r>
       <r>     0.2125     7.9080   160.1428 </r>
       <r>     0.3112     0.0000   162.0000 </r>
       <r>     0.4100    39.6241   164.0304 </r>
       <r>     0.5088    27.8757   166.4155 </r>
       <r>     0.6075    15.0771   168.5959 </r>
       <r>     0.7063    18.7439   170.5746 </r>
       <r>     0.8050    25.1645   172.8393 </r>
       <r>     0.9038    25.5052   175.3286 </r>
       <r>     1.0025    31.1774   177.2916 </r>
       <r>     1.1013    31.8222   179.8909 </r>
       <r>     1.2001    31.6767   182.9532 </r>
       <r>     1.2988    30.1872   187.0259 </r>
       <r>     1.3976    23.4764   190.5456 </r>
       <r>     1.4963    41.9901   194.3561 </r>
       <r>     1.5951    33.6054   198.1870 </r>
       <r>     1.6938     9.8262   200.1203 </r>
       <r>     1.7926    10.8555   200.8336 </r>
       <r>     1.8914    10.0832   201.9644 </r>
       <r>     1.9901    17.3784   202.8454 </r>
       <r>     2.0889     0.0000   204.0000 </r>
       <r>     2.1876     0.0000   204.0000 </r>
       <r>     2.2864     0.0000   204.0000 </r>
       <r>     2.3851     0.0000   204.0000 </r>
       <r>     2.4839     0.0000   204.0000 </r>
       <r>     2.5827     0.0000   204.0000 </r>
       <r>     2.6814     0.0000   204.0000 </r>
       <r>     2.7802     0.0000   204.0000 </r>
       <r>     2.8789     0.0000   204.0000 </r>
       <r>     2.9777     0.0000   204.0000 </r>
       <r>     3.0764     0.0000   204.0000 </r>
       <r>     3.1752     0.0000   204.0000 </r>
       <r>     3.2740     0.0000   204.0000 </r>
       <r>     3.3727     0.0000   204.0000 </r>
       <r>     3.4715     0.0000   204.0000 </r>
       <r>     3.5702     0.0000   204.0000 </r>
       <r>     3.6690     0.0000   204.0000 </r>
       <r>     3.7677     0.0000   204.0000 </r>
       <r>     3.8665     0.0000   204.0000 </r>
       <r>     3.9653     0.0000   204.0000 </r>
       <r>     4.0640     0.0000   204.0000 </r>
      </set>
     </set>
    </array>
   </total>
  </dos>
 </calculation>
 <structure name="finalpos" >
  <crystal>
   <varray name="basis" >
    <v>       9.55575275       0.00000000       0.00000000 </v>
    <v>      -4.77787638       8.27552464       0.00000000 </v>
    <v>       0.00000000       0.00000000      32.62509537 </v>
   </varray>
   <i name="volume">   2579.95558872 </i>
   <varray name="rec_basis" >
    <v>       0.10464900       0.06041913       0.00000000 </v>
    <v>       0.00000000       0.12083826       0.00000000 </v>
    <v>       0.00000000       0.00000000       0.03065125 </v>
   </varray>
  </crystal>
  <varray name="positions" >
   <v>       0.00000000       0.00000000       0.00000000 </v>
   <v>       0.99861982       0.99831033       0.15836701 </v>
   <v>       0.00312480       0.00115967       0.33098091 </v>
   <v>       0.00000001       0.33333336       0.00000000 </v>
   <v>       0.99996685       0.33339629       0.15746557 </v>
   <v>       0.99279395       0.33153839       0.31214850 </v>
   <v>       0.00000002       0.66666672       0.00000000 </v>
   <v>       0.99822495       0.66556813       0.15798830 </v>
   <v>       0.00485366       0.67058021       0.31489033 </v>
   <v>       0.33333334       0.00000000       0.00000000 </v>
   <v>       0.33213146       0.99839995       0.15742347 </v>
   <v>       0.32847522       0.99619245       0.30943942 </v>
   <v>       0.33333335       0.33333336       0.00000000 </v>
   <v>       0.33190227       0.33102079       0.15689821 </v>
   <v>       0.32015367       0.32119328       0.31116668 </v>
   <v>       0.33333336       0.66666672       0.00000000 </v>
   <v>       0.33179074       0.66605395       0.15803771 </v>
   <v>       0.32242851       0.67010928       0.33036772 </v>
   <v>       0.66666668       0.00000000       0.00000000 </v>
   <v>       0.66622256       0.99784740       0.15774255 </v>
   <v>       0.67010700       0.00399891       0.31341076 </v>
   <v>       0.66666668       0.33333336       0.00000000 </v>
   <v>       0.66645053       0.33436078       0.15879495 </v>
   <v>       0.66120910       0.31678261       0.32594772 </v>
   <v>       0.66666670       0.66666672       0.00000000 </v>
   <v>       0.66810940       0.66610600       0.15873658 </v>
   <v>       0.66804177       0.66791688       0.32629581 </v>
   <v>       0.11111113       0.22222222       0.07982145 </v>
   <v>       0.10624292       0.21823448       0.23569907 </v>
   <v>       0.11111114       0.55555561       0.07982145 </v>
   <v>       0.11426200       0.55679499       0.23676903 </v>
   <v>       0.11111116       0.88888894       0.07982145 </v>
   <v>       0.10687656       0.88663261       0.23528040 </v>
   <v>       0.44444450       0.22222222       0.07982145 </v>
   <v>       0.44565761       0.22377444       0.23568292 </v>
   <v>       0.44444450       0.55555561       0.07982145 </v>
   <v>       0.44388809       0.55414052       0.23459192 </v>
   <v>       0.44444451       0.88888894       0.07982145 </v>
   <v>       0.44399152       0.88245864       0.23623778 </v>
   <v>       0.77777779       0.22222222       0.07982145 </v>
   <v>       0.77442801       0.22000575       0.23508586 </v>
   <v>       0.77777781       0.55555561       0.07982145 </v>
   <v>       0.77101570       0.54934062       0.24156651 </v>
   <v>       0.77777784       0.88888894       0.07982145 </v>
   <v>       0.77779234       0.88291224       0.24009168 </v>
   <v>       0.00386029       0.99741781       0.39586974 </v>
   <v>       0.29182850       0.98409830       0.41391812 </v>
   <v>       0.89485882       0.21356626       0.41636499 </v>
   <v>       0.62088088       0.34006321       0.38870450 </v>
   <v>       0.64095246       0.62116210       0.38675248 </v>
   <v>       0.38710451       0.68622915       0.39224387 </v>
   <v>       0.97495501       0.07273925       0.40939291 </v>
   <v>       0.10146141       0.00618148       0.40902767 </v>
   <v>       0.38795329       0.08941476       0.40828078 </v>
   <v>       0.26443652       0.93034602       0.38674370 </v>
   <v>       0.98943282       0.32234839       0.41703654 </v>
   <v>       0.85748081       0.20141081       0.38739554 </v>
   <v>       0.62820667       0.45277870       0.39220786 </v>
   <v>       0.69562233       0.33328608       0.40802136 </v>
   <v>       0.73958891       0.69559261       0.40148712 </v>
   <v>       0.43169401       0.54754869       0.32319416 </v>
   <v>       0.39690153       0.77634290       0.40865566 </v>
   <v>       0.48327718       0.67162747       0.39713480 </v>
  </varray>
  <varray name="selective"  type="logical" >
   <v type="logical" >  F  F  F </v>
   <v type="logical" >  T  T  T </v>
   <v type="logical" >  T  T  T </v>
   <v type="logical" >  F  F  F </v>
   <v type="logical" >  T  T  T </v>
   <v type="logical" >  T  T  T </v>
   <v type="logical" >  F  F  F </v>
   <v type="logical" >  T  T  T </v>
   <v type="logical" >  T  T  T </v>
   <v type="logical" >  F  F  F </v>
   <v type="logical" >  T  T  T </v>
   <v type="logical" >  T  T  T </v>
   <v type="logical" >  F  F  F </v>
   <v type="logical" >  T  T  T </v>
   <v type="logical" >  T  T  T </v>
   <v type="logical" >  F  F  F </v>
   <v type="logical" >  T  T  T </v>
   <v type="logical" >  T  T  T </v>
   <v type="logical" >  F  F  F </v>
   <v type="logical" >  T  T  T </v>
   <v type="logical" >  T  T  T </v>
   <v type="logical" >  F  F  F </v>
   <v type="logical" >  T  T  T </v>
   <v type="logical" >  T  T  T </v>
   <v type="logical" >  F  F  F </v>
   <v type="logical" >  T  T  T </v>
   <v type="logical" >  T  T  T </v>
   <v type="logical" >  F  F  F </v>
   <v type="logical" >  T  T  T </v>
   <v type="logical" >  F  F  F </v>
   <v type="logical" >  T  T  T </v>
   <v type="logical" >  F  F  F </v>
   <v type="logical" >  T  T  T </v>
   <v type="logical" >  F  F  F </v>
   <v type="logical" >  T  T  T </v>
   <v type="logical" >  F  F  F </v>
   <v type="logical" >  T  T  T </v>
   <v type="logical" >  F  F  F </v>
   <v type="logical" >  T  T  T </v>
   <v type="logical" >  F  F  F </v>
   <v type="logical" >  T  T  T </v>
   <v type="logical" >  F  F  F </v>
   <v type="logical" >  T  T  T </v>
   <v type="logical" >  F  F  F </v>
   <v type="logical" >  T  T  T </v>
   <v type="logical" >  T  T  T </v>
   <v type="logical" >  T  T  T </v>
   <v type="logical" >  T  T  T </v>
   <v type="logical" >  T  T  T </v>
   <v type="logical" >  T  T  T </v>
   <v type="logical" >  T  T  T </v>
   <v type="logical" >  T  T  T </v>
   <v type="logical" >  T  T  T </v>
   <v type="logical" >  T  T  T </v>
   <v type="logical" >  T  T  T </v>
   <v type="logical" >  T  T  T </v>
   <v type="logical" >  T  T  T </v>
   <v type="logical" >  T  T  T </v>
   <v type="logical" >  T  T  T </v>
   <v type="logical" >  T  T  T </v>
   <v type="logical" >  T  T  T </v>
   <v type="logical" >  T  T  T </v>
   <v type="logical" >  T  T  T </v>
  </varray>
  <nose>
   <v>      -3.00000000       0.00000000       0.00010000       0.00010000 </v>
  </nose>
 </structure>
</modeling>
