Mg_slab_in_a_box                        
           1
     9.555753    0.000000    0.000000
    -4.777876    8.275525    0.000000
     0.000000    0.000000   32.625095
   Mg   O    H 
  45   6  12
Direct configuration=     1
   0.00000000  0.00000000  0.00000000
   0.99861982  0.99831033  0.15836701
   0.00312480  0.00115967  0.33098091
   0.00000001  0.33333336  0.00000000
   0.99996685  0.33339629  0.15746557
   0.99279395  0.33153839  0.31214850
   0.00000002  0.66666672  0.00000000
   0.99822495  0.66556813  0.15798830
   0.00485366  0.67058021  0.31489033
   0.33333334  0.00000000  0.00000000
   0.33213146  0.99839995  0.15742347
   0.32847522  0.99619245  0.30943942
   0.33333335  0.33333336  0.00000000
   0.33190227  0.33102079  0.15689821
   0.32015367  0.32119328  0.31116668
   0.33333336  0.66666672  0.00000000
   0.33179074  0.66605395  0.15803771
   0.32242851  0.67010928  0.33036772
   0.66666668  0.00000000  0.00000000
   0.66622256  0.99784740  0.15774255
   0.67010700  0.00399891  0.31341076
   0.66666668  0.33333336  0.00000000
   0.66645053  0.33436078  0.15879495
   0.66120910  0.31678261  0.32594772
   0.66666670  0.66666672  0.00000000
   0.66810940  0.66610600  0.15873658
   0.66804177  0.66791688  0.32629581
   0.11111113  0.22222222  0.07982145
   0.10624292  0.21823448  0.23569907
   0.11111114  0.55555561  0.07982145
   0.11426200  0.55679499  0.23676903
   0.11111116  0.88888894  0.07982145
   0.10687656  0.88663261  0.23528040
   0.44444450  0.22222222  0.07982145
   0.44565761  0.22377444  0.23568292
   0.44444450  0.55555561  0.07982145
   0.44388809  0.55414052  0.23459192
   0.44444451  0.88888894  0.07982145
   0.44399152  0.88245864  0.23623778
   0.77777779  0.22222222  0.07982145
   0.77442801  0.22000575  0.23508586
   0.77777781  0.55555561  0.07982145
   0.77101570  0.54934062  0.24156651
   0.77777784  0.88888894  0.07982145
   0.77779234  0.88291224  0.24009168
   0.00386029  0.99741781  0.39586974
   0.29182850  0.98409830  0.41391812
   0.89485882  0.21356626  0.41636499
   0.62088088  0.34006321  0.38870450
   0.64095246  0.62116210  0.38675248
   0.38710451  0.68622915  0.39224387
   0.97495501  0.07273925  0.40939291
   0.10146141  0.00618148  0.40902767
   0.38795329  0.08941476  0.40828078
   0.26443652  0.93034602  0.38674370
   0.98943282  0.32234839  0.41703654
   0.85748081  0.20141081  0.38739554
   0.62820667  0.45277870  0.39220786
   0.69562233  0.33328608  0.40802136
   0.73958891  0.69559261  0.40148712
   0.43169401  0.54754869  0.32319416
   0.39690153  0.77634290  0.40865566
   0.48327718  0.67162747  0.39713480
