  63  63   0   0
  0.4095168E+02  0.9555753E-09  0.9555753E-09  0.3262510E-08  0.5000000E-15
  1.000000000000000E-004
  CAR 
 Mg_slab_in_a_box                        
      4.30711003    -26.06073334  301     -0.55564120      1.00000000
    -26.061  0.0000E+00  0.0000E+00
    -25.960  0.0000E+00  0.0000E+00
    -25.858  0.0000E+00  0.0000E+00
    -25.757  0.0000E+00  0.0000E+00
    -25.656  0.0000E+00  0.0000E+00
    -25.555  0.0000E+00  0.0000E+00
    -25.453  0.0000E+00  0.0000E+00
    -25.352  0.0000E+00  0.0000E+00
    -25.251  0.0000E+00  0.0000E+00
    -25.150  0.0000E+00  0.0000E+00
    -25.048  0.0000E+00  0.0000E+00
    -24.947  0.0000E+00  0.0000E+00
    -24.846  0.0000E+00  0.0000E+00
    -24.745  0.0000E+00  0.0000E+00
    -24.644  0.0000E+00  0.0000E+00
    -24.542  0.0000E+00  0.0000E+00
    -24.441  0.0000E+00  0.0000E+00
    -24.340  0.0000E+00  0.0000E+00
    -24.239  0.0000E+00  0.0000E+00
    -24.137  0.0000E+00  0.0000E+00
    -24.036  0.0000E+00  0.2000E+01
    -23.935  0.0000E+00  0.2000E+01
    -23.834  0.0000E+00  0.4000E+01
    -23.733  0.1150E+03  0.5759E+01
    -23.631  0.0000E+00  0.6000E+01
    -23.530  0.0000E+00  0.8000E+01
    -23.429  0.8338E+02  0.8413E+01
    -23.328  0.5119E+02  0.1194E+02
    -23.226  0.0000E+00  0.1200E+02
    -23.125  0.0000E+00  0.1200E+02
    -23.024  0.0000E+00  0.1200E+02
    -22.923  0.0000E+00  0.1200E+02
    -22.821  0.0000E+00  0.1200E+02
    -22.720  0.0000E+00  0.1200E+02
    -22.619  0.0000E+00  0.1200E+02
    -22.518  0.0000E+00  0.1200E+02
    -22.417  0.0000E+00  0.1200E+02
    -22.315  0.0000E+00  0.1200E+02
    -22.214  0.0000E+00  0.1200E+02
    -22.113  0.0000E+00  0.1200E+02
    -22.012  0.0000E+00  0.1200E+02
    -21.910  0.0000E+00  0.1200E+02
    -21.809  0.0000E+00  0.1200E+02
    -21.708  0.0000E+00  0.1200E+02
    -21.607  0.0000E+00  0.1200E+02
    -21.506  0.0000E+00  0.1200E+02
    -21.404  0.0000E+00  0.1200E+02
    -21.303  0.0000E+00  0.1200E+02
    -21.202  0.0000E+00  0.1200E+02
    -21.101  0.0000E+00  0.1200E+02
    -20.999  0.0000E+00  0.1200E+02
    -20.898  0.0000E+00  0.1200E+02
    -20.797  0.0000E+00  0.1200E+02
    -20.696  0.0000E+00  0.1200E+02
    -20.595  0.0000E+00  0.1200E+02
    -20.493  0.0000E+00  0.1200E+02
    -20.392  0.0000E+00  0.1200E+02
    -20.291  0.0000E+00  0.1200E+02
    -20.190  0.0000E+00  0.1200E+02
    -20.088  0.0000E+00  0.1200E+02
    -19.987  0.0000E+00  0.1200E+02
    -19.886  0.0000E+00  0.1200E+02
    -19.785  0.0000E+00  0.1200E+02
    -19.683  0.0000E+00  0.1200E+02
    -19.582  0.0000E+00  0.1200E+02
    -19.481  0.0000E+00  0.1200E+02
    -19.380  0.0000E+00  0.1200E+02
    -19.279  0.0000E+00  0.1200E+02
    -19.177  0.0000E+00  0.1200E+02
    -19.076  0.0000E+00  0.1200E+02
    -18.975  0.0000E+00  0.1200E+02
    -18.874  0.0000E+00  0.1200E+02
    -18.772  0.0000E+00  0.1200E+02
    -18.671  0.0000E+00  0.1200E+02
    -18.570  0.0000E+00  0.1200E+02
    -18.469  0.0000E+00  0.1200E+02
    -18.368  0.0000E+00  0.1200E+02
    -18.266  0.0000E+00  0.1200E+02
    -18.165  0.0000E+00  0.1200E+02
    -18.064  0.0000E+00  0.1200E+02
    -17.963  0.0000E+00  0.1200E+02
    -17.861  0.0000E+00  0.1200E+02
    -17.760  0.0000E+00  0.1200E+02
    -17.659  0.0000E+00  0.1200E+02
    -17.558  0.0000E+00  0.1200E+02
    -17.457  0.0000E+00  0.1200E+02
    -17.355  0.0000E+00  0.1200E+02
    -17.254  0.0000E+00  0.1200E+02
    -17.153  0.0000E+00  0.1200E+02
    -17.052  0.0000E+00  0.1200E+02
    -16.950  0.0000E+00  0.1200E+02
    -16.849  0.0000E+00  0.1200E+02
    -16.748  0.0000E+00  0.1200E+02
    -16.647  0.0000E+00  0.1200E+02
    -16.545  0.0000E+00  0.1200E+02
    -16.444  0.0000E+00  0.1200E+02
    -16.343  0.0000E+00  0.1200E+02
    -16.242  0.0000E+00  0.1200E+02
    -16.141  0.0000E+00  0.1200E+02
    -16.039  0.0000E+00  0.1200E+02
    -15.938  0.0000E+00  0.1200E+02
    -15.837  0.0000E+00  0.1200E+02
    -15.736  0.0000E+00  0.1200E+02
    -15.634  0.0000E+00  0.1200E+02
    -15.533  0.0000E+00  0.1200E+02
    -15.432  0.0000E+00  0.1200E+02
    -15.331  0.0000E+00  0.1200E+02
    -15.230  0.0000E+00  0.1200E+02
    -15.128  0.0000E+00  0.1200E+02
    -15.027  0.0000E+00  0.1200E+02
    -14.926  0.0000E+00  0.1200E+02
    -14.825  0.0000E+00  0.1200E+02
    -14.723  0.0000E+00  0.1200E+02
    -14.622  0.0000E+00  0.1200E+02
    -14.521  0.0000E+00  0.1200E+02
    -14.420  0.0000E+00  0.1200E+02
    -14.319  0.0000E+00  0.1200E+02
    -14.217  0.0000E+00  0.1200E+02
    -14.116  0.0000E+00  0.1200E+02
    -14.015  0.0000E+00  0.1200E+02
    -13.914  0.0000E+00  0.1200E+02
    -13.812  0.0000E+00  0.1200E+02
    -13.711  0.0000E+00  0.1200E+02
    -13.610  0.0000E+00  0.1200E+02
    -13.509  0.0000E+00  0.1200E+02
    -13.407  0.0000E+00  0.1200E+02
    -13.306  0.0000E+00  0.1200E+02
    -13.205  0.0000E+00  0.1200E+02
    -13.104  0.0000E+00  0.1200E+02
    -13.003  0.0000E+00  0.1200E+02
    -12.901  0.0000E+00  0.1200E+02
    -12.800  0.0000E+00  0.1200E+02
    -12.699  0.0000E+00  0.1200E+02
    -12.598  0.0000E+00  0.1200E+02
    -12.496  0.0000E+00  0.1200E+02
    -12.395  0.0000E+00  0.1200E+02
    -12.294  0.0000E+00  0.1200E+02
    -12.193  0.0000E+00  0.1200E+02
    -12.092  0.0000E+00  0.1400E+02
    -11.990  0.0000E+00  0.1400E+02
    -11.889  0.0000E+00  0.1400E+02
    -11.788  0.3959E+03  0.1646E+02
    -11.687  0.0000E+00  0.1800E+02
    -11.585  0.0000E+00  0.2000E+02
    -11.484  0.0000E+00  0.2000E+02
    -11.383  0.0000E+00  0.2000E+02
    -11.282  0.0000E+00  0.2000E+02
    -11.180  0.0000E+00  0.2000E+02
    -11.079  0.0000E+00  0.2200E+02
    -10.978  0.2154E+03  0.2288E+02
    -10.877  0.0000E+00  0.2400E+02
    -10.776  0.0000E+00  0.2400E+02
    -10.674  0.0000E+00  0.2400E+02
    -10.573  0.0000E+00  0.2400E+02
    -10.472  0.0000E+00  0.2400E+02
    -10.371  0.0000E+00  0.2400E+02
    -10.269  0.0000E+00  0.2400E+02
    -10.168  0.0000E+00  0.2400E+02
    -10.067  0.0000E+00  0.2400E+02
     -9.966  0.0000E+00  0.2400E+02
     -9.865  0.0000E+00  0.2400E+02
     -9.763  0.0000E+00  0.2400E+02
     -9.662  0.0000E+00  0.2400E+02
     -9.561  0.0000E+00  0.2400E+02
     -9.460  0.0000E+00  0.2400E+02
     -9.358  0.0000E+00  0.2400E+02
     -9.257  0.0000E+00  0.2400E+02
     -9.156  0.0000E+00  0.2400E+02
     -9.055  0.0000E+00  0.2400E+02
     -8.954  0.0000E+00  0.2400E+02
     -8.852  0.0000E+00  0.2400E+02
     -8.751  0.0000E+00  0.2600E+02
     -8.650  0.0000E+00  0.2800E+02
     -8.549  0.0000E+00  0.2800E+02
     -8.447  0.0000E+00  0.3000E+02
     -8.346  0.0000E+00  0.3000E+02
     -8.245  0.0000E+00  0.3200E+02
     -8.144  0.0000E+00  0.3200E+02
     -8.042  0.0000E+00  0.3200E+02
     -7.941  0.0000E+00  0.3400E+02
     -7.840  0.0000E+00  0.3600E+02
     -7.739  0.0000E+00  0.3600E+02
     -7.638  0.0000E+00  0.3600E+02
     -7.536  0.0000E+00  0.3600E+02
     -7.435  0.0000E+00  0.3600E+02
     -7.334  0.2626E+00  0.3600E+02
     -7.233  0.2670E+01  0.3615E+02
     -7.131  0.5078E+01  0.3654E+02
     -7.030  0.8458E+01  0.3759E+02
     -6.929  0.1733E+02  0.3802E+02
     -6.828  0.6399E+01  0.3937E+02
     -6.727  0.3103E+01  0.3985E+02
     -6.625  0.3340E+01  0.4015E+02
     -6.524  0.3096E+02  0.4244E+02
     -6.423  0.1782E+02  0.4451E+02
     -6.322  0.1453E+02  0.4783E+02
     -6.220  0.3083E+01  0.4954E+02
     -6.119  0.2041E+01  0.4980E+02
     -6.018  0.9988E+00  0.4995E+02
     -5.917  0.6721E+02  0.5238E+02
     -5.816  0.1988E+02  0.5503E+02
     -5.714  0.1766E+02  0.5692E+02
     -5.613  0.7081E+01  0.5850E+02
     -5.512  0.1367E+02  0.5959E+02
     -5.411  0.9717E+01  0.6077E+02
     -5.309  0.5769E+01  0.6156E+02
     -5.208  0.1821E+01  0.6194E+02
     -5.107  0.6488E+02  0.6266E+02
     -5.006  0.0000E+00  0.6600E+02
     -4.904  0.0000E+00  0.6600E+02
     -4.803  0.9780E+01  0.6673E+02
     -4.702  0.5352E+01  0.6750E+02
     -4.601  0.3434E+01  0.6786E+02
     -4.500  0.6873E+01  0.6837E+02
     -4.398  0.1774E+02  0.7075E+02
     -4.297  0.1931E+02  0.7224E+02
     -4.196  0.2378E+02  0.7411E+02
     -4.095  0.2294E+02  0.7641E+02
     -3.993  0.8920E+01  0.7802E+02
     -3.892  0.1287E+01  0.7839E+02
     -3.791  0.1763E+02  0.7915E+02
     -3.690  0.3789E+02  0.8233E+02
     -3.589  0.4638E+01  0.8433E+02
     -3.487  0.6495E+01  0.8495E+02
     -3.386  0.6345E+01  0.8560E+02
     -3.285  0.6196E+01  0.8623E+02
     -3.184  0.6046E+01  0.8685E+02
     -3.082  0.6510E+01  0.8746E+02
     -2.981  0.4781E+01  0.9077E+02
     -2.880  0.1003E+02  0.9156E+02
     -2.779  0.4000E+02  0.9380E+02
     -2.677  0.3575E+02  0.9780E+02
     -2.576  0.1779E+02  0.1004E+03
     -2.475  0.8011E+01  0.1017E+03
     -2.374  0.6574E+01  0.1024E+03
     -2.273  0.2486E+02  0.1051E+03
     -2.171  0.1187E+02  0.1073E+03
     -2.070  0.1482E+02  0.1081E+03
     -1.969  0.7085E+01  0.1092E+03
     -1.868  0.4466E+01  0.1096E+03
     -1.766  0.2020E+02  0.1108E+03
     -1.665  0.3171E+02  0.1137E+03
     -1.564  0.3569E+02  0.1171E+03
     -1.463  0.3216E+02  0.1207E+03
     -1.362  0.1686E+02  0.1232E+03
     -1.260  0.1156E+02  0.1246E+03
     -1.159  0.1288E+02  0.1272E+03
     -1.058  0.8886E+01  0.1283E+03
     -0.957  0.1163E+02  0.1292E+03
     -0.855  0.3168E+02  0.1312E+03
     -0.754  0.1659E+02  0.1344E+03
     -0.653  0.1012E+02  0.1357E+03
     -0.552  0.5007E+02  0.1382E+03
     -0.451  0.1945E+02  0.1422E+03
     -0.349  0.9436E+01  0.1442E+03
     -0.248  0.1247E+02  0.1450E+03
     -0.147  0.1437E+02  0.1469E+03
     -0.046  0.1803E+02  0.1483E+03
      0.056  0.0000E+00  0.1500E+03
      0.157  0.5512E+02  0.1533E+03
      0.258  0.2796E+01  0.1559E+03
      0.359  0.5041E+02  0.1592E+03
      0.461  0.1460E+02  0.1606E+03
      0.562  0.4919E+02  0.1632E+03
      0.663  0.5130E+02  0.1654E+03
      0.764  0.1104E+02  0.1687E+03
      0.865  0.1723E+02  0.1706E+03
      0.967  0.3060E+02  0.1729E+03
      1.068  0.2294E+02  0.1761E+03
      1.169  0.2850E+02  0.1789E+03
      1.270  0.2331E+02  0.1815E+03
      1.372  0.3133E+02  0.1839E+03
      1.473  0.3511E+02  0.1873E+03
      1.574  0.5173E+02  0.1925E+03
      1.675  0.6250E+02  0.1972E+03
      1.776  0.3171E+02  0.2003E+03
      1.878  0.5033E+01  0.2015E+03
      1.979  0.3606E+01  0.2019E+03
      2.080  0.2178E+01  0.2022E+03
      2.181  0.2826E+01  0.2024E+03
      2.283  0.2199E+02  0.2033E+03
      2.384  0.0000E+00  0.2040E+03
      2.485  0.0000E+00  0.2040E+03
      2.586  0.0000E+00  0.2040E+03
      2.687  0.0000E+00  0.2040E+03
      2.789  0.0000E+00  0.2040E+03
      2.890  0.0000E+00  0.2040E+03
      2.991  0.0000E+00  0.2040E+03
      3.092  0.0000E+00  0.2040E+03
      3.194  0.0000E+00  0.2040E+03
      3.295  0.0000E+00  0.2040E+03
      3.396  0.0000E+00  0.2040E+03
      3.497  0.0000E+00  0.2040E+03
      3.599  0.0000E+00  0.2040E+03
      3.700  0.0000E+00  0.2040E+03
      3.801  0.0000E+00  0.2040E+03
      3.902  0.0000E+00  0.2040E+03
      4.003  0.0000E+00  0.2040E+03
      4.105  0.0000E+00  0.2040E+03
      4.206  0.0000E+00  0.2040E+03
      4.307  0.0000E+00  0.2040E+03
