 vasp.5.4.4.18Apr17-6-g9f103f2a35 (build Jun 08 2018 12:06:12) complex          
  
 executed on             LinuxIFC date 2019.06.06  06:49:16
 running on   72 total cores
 distrk:  each k-point on   72 cores,    1 groups
 distr:  one band on NCORES_PER_BAND=  24 cores,    3 groups


--------------------------------------------------------------------------------------------------------


 INCAR:
 POTCAR:    PAW_PBE Mg 13Apr2007                  
 POTCAR:    PAW_PBE O 08Apr2002                   
 POTCAR:    PAW_PBE H 15Jun2001                   

 ----------------------------------------------------------------------------- 
|                                                                             |
|           W    W    AA    RRRRR   N    N  II  N    N   GGGG   !!!           |
|           W    W   A  A   R    R  NN   N  II  NN   N  G    G  !!!           |
|           W    W  A    A  R    R  N N  N  II  N N  N  G       !!!           |
|           W WW W  AAAAAA  RRRRR   N  N N  II  N  N N  G  GGG   !            |
|           WW  WW  A    A  R   R   N   NN  II  N   NN  G    G                |
|           W    W  A    A  R    R  N    N  II  N    N   GGGG   !!!           |
|                                                                             |
|      For optimal performance we recommend to set                            |
|        NCORE= 4 - approx SQRT( number of cores)                             |
|      NCORE specifies how many cores store one orbital (NPAR=cpu/NCORE).     |
|      This setting can  greatly improve the performance of VASP for DFT.     |
|      The default,   NCORE=1            might be grossly inefficient         |
|      on modern multi-core architectures or massively parallel machines.     |
|      Do your own testing !!!!                                               |
|      Unfortunately you need to use the default for GW and RPA calculations. |
|      (for HF NCORE is supported but not extensively tested yet)             |
|                                                                             |
 ----------------------------------------------------------------------------- 


 ----------------------------------------------------------------------------- 
|                                                                             |
|  ADVICE TO THIS USER RUNNING 'VASP/VAMP'   (HEAR YOUR MASTER'S VOICE ...):  |
|                                                                             |
|      You have switched on vdW-DFT.                                          |
|      This routine was written and supplied by Jiri Klimes.                  |
|      We recommed that you carefully read and cite the following             |
|      publication                                                            |
|      J. Klimes, D.R. Bowler, A. Michelides                                  |
|        J. Phys.: Cond Matt. 22 022201 (2010)                                |
|      J. Klimes, D.R. Bowler, A. Michelides                                  |
|        Phys. Rev. B. 83, 195131 (2011)                                      |
|      and references therein.                                                |
|                                                                             |
 ----------------------------------------------------------------------------- 

 POTCAR:    PAW_PBE Mg 13Apr2007                  
   VRHFIN =Mg: s2p0                                                             
   LEXCH  = PE                                                                  
   EATOM  =    23.0369 eV,    1.6932 Ry                                         
                                                                                
   TITEL  = PAW_PBE Mg 13Apr2007                                                
   LULTRA =        F    use ultrasoft PP ?                                      
   IUNSCR =        1    unscreen: 0-lin 1-nonlin 2-no                           
   RPACOR =    1.500    partial core radius                                     
   POMASS =   24.305; ZVAL   =    2.000    mass and valenz                      
   RCORE  =    2.000    outmost cutoff radius                                   
   RWIGS  =    2.880; RWIGS  =    1.524    wigner-seitz radius (au A)           
   ENMAX  =  200.000; ENMIN  =  100.000 eV                                      
   RCLOC  =    1.506    cutoff for local pot                                    
   LCOR   =        T    correct aug charges                                     
   LPAW   =        T    paw PP                                                  
   EAUG   =  454.734                                                            
   DEXC   =    0.000                                                            
   RMAX   =    2.045    core radius for proj-oper                               
   RAUG   =    1.300    factor for augmentation sphere                          
   RDEP   =    2.025    radius for radial grids                                 
   RDEPT  =    1.942    core radius for aug-charge                              
                                                                                
   Atomic configuration                                                         
    6 entries                                                                   
     n  l   j            E        occ.                                          
     1  0  0.50     -1259.6230   2.0000                                         
     2  0  0.50       -79.8442   2.0000                                         
     2  1  1.50       -46.6121   6.0000                                         
     3  0  0.50        -4.7055   2.0000                                         
     3  1  0.50        -1.3660   0.0000                                         
     3  2  1.50        -1.3606   0.0000                                         
   Description                                                                  
     l       E           TYP  RCUT    TYP  RCUT                                 
     0     -4.7054661     23  2.000                                             
     0     27.2116520     23  2.000                                             
     1      1.3605826     23  2.000                                             
     1     27.2116520     23  2.000                                             
     2     -1.3605826     23  2.000                                             
  local pseudopotential read in
  partial core-charges read in
  partial kinetic energy density read in
  atomic valenz-charges read in
  non local Contribution for L=           0  read in
    real space projection operators read in
  non local Contribution for L=           0  read in
    real space projection operators read in
  non local Contribution for L=           1  read in
    real space projection operators read in
  non local Contribution for L=           1  read in
    real space projection operators read in
  non local Contribution for L=           2  read in
    real space projection operators read in
    PAW grid and wavefunctions read in
 
   number of l-projection  operators is LMAX  =           5
   number of lm-projection operators is LMMAX =          13
 
 POTCAR:    PAW_PBE O 08Apr2002                   
   VRHFIN =O: s2p4                                                              
   LEXCH  = PE                                                                  
   EATOM  =   432.3788 eV,   31.7789 Ry                                         
                                                                                
   TITEL  = PAW_PBE O 08Apr2002                                                 
   LULTRA =        F    use ultrasoft PP ?                                      
   IUNSCR =        1    unscreen: 0-lin 1-nonlin 2-no                           
   RPACOR =    1.200    partial core radius                                     
   POMASS =   16.000; ZVAL   =    6.000    mass and valenz                      
   RCORE  =    1.520    outmost cutoff radius                                   
   RWIGS  =    1.550; RWIGS  =    0.820    wigner-seitz radius (au A)           
   ENMAX  =  400.000; ENMIN  =  300.000 eV                                      
   ICORE  =        2    local potential                                         
   LCOR   =        T    correct aug charges                                     
   LPAW   =        T    paw PP                                                  
   EAUG   =  605.392                                                            
   DEXC   =    0.000                                                            
   RMAX   =    1.553    core radius for proj-oper                               
   RAUG   =    1.300    factor for augmentation sphere                          
   RDEP   =    1.550    radius for radial grids                                 
   RDEPT  =    1.329    core radius for aug-charge                              
                                                                                
   Atomic configuration                                                         
    4 entries                                                                   
     n  l   j            E        occ.                                          
     1  0  0.50      -514.6923   2.0000                                         
     2  0  0.50       -23.9615   2.0000                                         
     2  1  0.50        -9.0305   4.0000                                         
     3  2  1.50        -9.5241   0.0000                                         
   Description                                                                  
     l       E           TYP  RCUT    TYP  RCUT                                 
     0    -23.9615318     23  1.200                                             
     0     -9.5240782     23  1.200                                             
     1     -9.0304911     23  1.520                                             
     1      8.1634956     23  1.520                                             
     2     -9.5240782      7  1.500                                             
  local pseudopotential read in
  partial core-charges read in
  partial kinetic energy density read in
  kinetic energy density of atom read in
  atomic valenz-charges read in
  non local Contribution for L=           0  read in
    real space projection operators read in
  non local Contribution for L=           0  read in
    real space projection operators read in
  non local Contribution for L=           1  read in
    real space projection operators read in
  non local Contribution for L=           1  read in
    real space projection operators read in
    PAW grid and wavefunctions read in
 
   number of l-projection  operators is LMAX  =           4
   number of lm-projection operators is LMMAX =           8
 
 POTCAR:    PAW_PBE H 15Jun2001                   
   VRHFIN =H: ultrasoft test                                                    
   LEXCH  = PE                                                                  
   EATOM  =    12.4884 eV,    0.9179 Ry                                         
                                                                                
   TITEL  = PAW_PBE H 15Jun2001                                                 
   LULTRA =        F    use ultrasoft PP ?                                      
   IUNSCR =        0    unscreen: 0-lin 1-nonlin 2-no                           
   RPACOR =    0.000    partial core radius                                     
   POMASS =    1.000; ZVAL   =    1.000    mass and valenz                      
   RCORE  =    1.100    outmost cutoff radius                                   
   RWIGS  =    0.700; RWIGS  =    0.370    wigner-seitz radius (au A)           
   ENMAX  =  250.000; ENMIN  =  200.000 eV                                      
   RCLOC  =    0.701    cutoff for local pot                                    
   LCOR   =        T    correct aug charges                                     
   LPAW   =        T    paw PP                                                  
   EAUG   =  400.000                                                            
   RMAX   =    1.123    core radius for proj-oper                               
   RAUG   =    1.200    factor for augmentation sphere                          
   RDEP   =    1.112    radius for radial grids                                 
   RDEPT  =    0.926    core radius for aug-charge                              
                                                                                
   Atomic configuration                                                         
    2 entries                                                                   
     n  l   j            E        occ.                                          
     1  0  0.50        -6.4927   1.0000                                         
     2  1  0.50        -3.4015   0.0000                                         
   Description                                                                  
     l       E           TYP  RCUT    TYP  RCUT                                 
     0     -6.4927494     23  1.100                                             
     0      6.8029130     23  1.100                                             
     1     -4.0817478     23  1.100                                             
  local pseudopotential read in
  atomic valenz-charges read in
  non local Contribution for L=           0  read in
    real space projection operators read in
  non local Contribution for L=           0  read in
    real space projection operators read in
  non local Contribution for L=           1  read in
    real space projection operators read in
    PAW grid and wavefunctions read in
 
   number of l-projection  operators is LMAX  =           3
   number of lm-projection operators is LMMAX =           5
 
 Optimization of the real space projectors (new method)

 maximal supplied QI-value         = 18.90
 optimisation between [QCUT,QGAM] = [ 11.53, 23.24] = [ 37.21,151.29] Ry 
 Optimized for a Real-space Cutoff    1.28 Angstroem

   l    n(q)    QCUT    max X(q) W(low)/X(q) W(high)/X(q)  e(spline) 
   0      9    11.527    28.265    0.62E-04    0.53E-04    0.73E-07
   0      9    11.527    10.429    0.52E-04    0.40E-04    0.58E-07
   1      8    11.527    13.073    0.98E-04    0.18E-03    0.86E-07
   1      8    11.527     9.625    0.79E-04    0.15E-03    0.74E-07
   2      8    11.527     4.652    0.22E-03    0.72E-04    0.47E-07
 Optimization of the real space projectors (new method)

 maximal supplied QI-value         = 24.76
 optimisation between [QCUT,QGAM] = [ 11.64, 23.27] = [ 37.91,151.63] Ry 
 Optimized for a Real-space Cutoff    1.14 Angstroem

   l    n(q)    QCUT    max X(q) W(low)/X(q) W(high)/X(q)  e(spline) 
   0      8    11.635    20.381    0.10E-03    0.33E-03    0.24E-06
   0      8    11.635    15.268    0.11E-03    0.35E-03    0.26E-06
   1      7    11.635     5.964    0.24E-03    0.31E-03    0.30E-06
   1      7    11.635     5.382    0.22E-03    0.25E-03    0.26E-06
 Optimization of the real space projectors (new method)

 maximal supplied QI-value         = 34.20
 optimisation between [QCUT,QGAM] = [ 11.63, 23.26] = [ 37.87,151.49] Ry 
 Optimized for a Real-space Cutoff    1.21 Angstroem

   l    n(q)    QCUT    max X(q) W(low)/X(q) W(high)/X(q)  e(spline) 
   0      8    11.629    19.460    0.17E-03    0.34E-03    0.21E-06
   0      8    11.629    12.209    0.16E-03    0.33E-03    0.21E-06
   1      8    11.629     4.655    0.18E-03    0.16E-03    0.26E-06

 ----------------------------------------------------------------------------- 
|                                                                             |
|  ADVICE TO THIS USER RUNNING 'VASP/VAMP'   (HEAR YOUR MASTER'S VOICE ...):  |
|                                                                             |
|      You enforced a specific xc-type in the INCAR file,                     |
|      a different type was found on the POTCAR file                          |
|          I HOPE YOU KNOW, WHAT YOU ARE  DOING                               |
|                                                                             |
 ----------------------------------------------------------------------------- 

  PAW_PBE Mg 13Apr2007                  :
 energy of atom  1       EATOM=  -23.0369
 kinetic energy error for atom=    0.0000 (will be added to EATOM!!)
  PAW_PBE O 08Apr2002                   :
 energy of atom  2       EATOM= -432.3788
 kinetic energy error for atom=    0.0208 (will be added to EATOM!!)
  PAW_PBE H 15Jun2001                   :
 energy of atom  3       EATOM=  -12.4884
 kinetic energy error for atom=    0.0014 (will be added to EATOM!!)
 
 
 POSCAR: Mg   O    H                             
  positions in direct lattice
  velocities in cartesian coordinates
 exchange correlation table for  LEXCH =       42
   RHO(1)=    0.500       N(1)  =     2000
   RHO(2)=  100.500       N(2)  =     4000

 VTST: version 3.2, (02/03/18)

 CHAIN: initializing optimizer
 
 OPT: Using VASP Dynamics algorithm
 CHAIN: Read ICHAIN            0
 
 POSCAR: Mg   O    H                             
  positions in direct lattice
  velocities in cartesian coordinates
 


--------------------------------------------------------------------------------------------------------


 ion  position               nearest neighbor table
   1  0.000  0.000  0.000-   7 3.19  25 3.19  19 3.19  10 3.19   4 3.19  13 3.19  44 3.19  32 3.19
                            28 3.19
   2  0.999  1.000  0.158-  33 3.07  29 3.11  44 3.14  28 3.14  32 3.15  45 3.15  20 3.17   5 3.18
                            26 3.18  14 3.19  11 3.20   8 3.20
   3  0.998  0.000  0.329-  46 2.20  15 3.19  27 3.21  21 3.22   9 3.22  12 3.22   6 3.24  45 3.50
                            29 3.53  33 3.62
   4  0.000  0.333  0.000-  22 3.19  13 3.19  19 3.19  16 3.19   1 3.19   7 3.19  40 3.19  30 3.19
                            28 3.19
   5  1.000  0.333  0.157-  28 3.13  40 3.13  30 3.13  41 3.14  31 3.16  29 3.17   8 3.18   2 3.18
                            14 3.18  17 3.18  23 3.19  20 3.19
   6  0.996  0.332  0.310-  31 3.05  29 3.06  41 3.07  15 3.14  24 3.19   9 3.20  21 3.21  18 3.22
                             3 3.24
   7  0.000  0.667  0.000-   1 3.19  10 3.19  25 3.19  16 3.19  22 3.19   4 3.19  42 3.19  32 3.19
                            30 3.19
   8  0.999  0.664  0.157-  33 3.09  42 3.12  30 3.12  32 3.13  31 3.15  23 3.17   5 3.18  26 3.18
                            17 3.19   2 3.20  43 3.20  11 3.20
   9  0.000  0.669  0.313-  43 3.09  31 3.13  12 3.13  33 3.15  18 3.15  27 3.16   6 3.20   3 3.22
                            24 3.32
  10  0.333  0.000  0.000-  16 3.19   7 3.19  19 3.19   1 3.19  22 3.19  13 3.19  32 3.19  34 3.19
                            38 3.19
  11  0.334  1.000  0.157-  38 3.12  33 3.12  32 3.12  34 3.12  39 3.15  35 3.16  23 3.18  20 3.18
                            17 3.19  14 3.19   2 3.20   8 3.20
  12  0.327  0.997  0.308-  35 3.03  33 3.03  39 3.04   9 3.13  24 3.17  15 3.22   3 3.22  21 3.23
                            18 3.24
  13  0.333  0.333  0.000-  22 3.19   4 3.19  10 3.19   1 3.19  25 3.19  16 3.19  28 3.19  36 3.19
                            34 3.19
  14  0.333  0.333  0.158-  35 3.13  28 3.13  36 3.13  34 3.13  29 3.15  17 3.18  37 3.18   5 3.18
                            23 3.18  26 3.18   2 3.19  11 3.19
  15  0.326  0.333  0.314-  29 3.11  37 3.12   6 3.14  35 3.18   3 3.19  12 3.22  27 3.22  18 3.22
                            24 3.27
  16  0.333  0.667  0.000-  10 3.19  19 3.19   7 3.19  25 3.19   4 3.19  13 3.19  38 3.19  30 3.19
                            36 3.19
  17  0.333  0.666  0.158-  39 3.10  31 3.11  37 3.14  30 3.14  36 3.15  38 3.15  14 3.18   5 3.18
                            20 3.18  11 3.19   8 3.19  26 3.19
  18  0.323  0.664  0.330-  51 2.22   9 3.15   6 3.22  15 3.22  12 3.24  21 3.25  27 3.33  31 3.52
                            37 3.58  39 3.59
  19  0.667  0.000  0.000-  25 3.19  16 3.19   1 3.19  10 3.19   4 3.19  22 3.19  38 3.19  44 3.19
                            40 3.19
  20  0.666  0.998  0.157-  41 3.12  44 3.12  38 3.12  40 3.13  39 3.14   2 3.17  26 3.18  17 3.18
                            11 3.18   5 3.19  23 3.20  45 3.20
  21  0.663  0.995  0.313-  45 3.09  39 3.13  24 3.13  41 3.16  27 3.17   6 3.21   3 3.22  12 3.23
                            18 3.25
  22  0.667  0.333  0.000-  13 3.19   4 3.19  10 3.19  25 3.19   7 3.19  19 3.19  34 3.19  42 3.19
                            40 3.19
  23  0.666  0.333  0.158-  41 3.09  35 3.11  43 3.14  34 3.14  40 3.15  42 3.15   8 3.17  26 3.18
                            11 3.18  14 3.18   5 3.19  20 3.20
  24  0.660  0.319  0.323-  49 2.19  21 3.13  12 3.17   6 3.19  15 3.27  27 3.28   9 3.32  35 3.36
                            41 3.38  43 3.38
  25  0.667  0.667  0.000-   1 3.19  19 3.19   7 3.19  16 3.19  22 3.19  13 3.19  36 3.19  42 3.19
                            44 3.19
  26  0.667  0.666  0.158-  42 3.15  36 3.15  37 3.16  44 3.16  45 3.16  43 3.17  23 3.18   8 3.18
                            20 3.18   2 3.18  14 3.18  17 3.19
  27  0.668  0.665  0.316-  50 2.34  43 3.15   9 3.16  45 3.16  21 3.17  37 3.18   3 3.21  15 3.22
                            24 3.28  18 3.33
  28  0.111  0.222  0.080-   5 3.13  14 3.13   2 3.14  44 3.19  32 3.19  40 3.19  34 3.19  36 3.19
                            30 3.19   1 3.19  13 3.19   4 3.19
  29  0.110  0.217  0.236-   6 3.06  15 3.11   2 3.11  45 3.15  14 3.15  33 3.15   5 3.17  35 3.17
                            37 3.22  41 3.23  31 3.23   3 3.53
  30  0.111  0.556  0.080-   8 3.12   5 3.13  17 3.14  32 3.19  42 3.19  38 3.19  40 3.19  36 3.19
                            28 3.19  16 3.19   7 3.19   4 3.19
  31  0.114  0.558  0.236-   6 3.05  17 3.11   9 3.13  39 3.13  37 3.15   8 3.15   5 3.16  33 3.17
                            43 3.21  29 3.23  41 3.25  18 3.52
  32  0.111  0.889  0.080-  11 3.12   8 3.13   2 3.15  28 3.19  34 3.19  44 3.19  30 3.19  42 3.19
                            38 3.19  10 3.19   1 3.19   7 3.19
  33  0.107  0.886  0.233-  12 3.03   2 3.07   8 3.09  11 3.12  45 3.13   9 3.15  29 3.15  31 3.17
                            43 3.20  39 3.22  35 3.24   3 3.62
  34  0.444  0.222  0.080-  11 3.12  14 3.13  23 3.14  38 3.19  40 3.19  32 3.19  42 3.19  28 3.19
                            36 3.19  22 3.19  10 3.19  13 3.19
  35  0.446  0.225  0.235-  12 3.03  23 3.11  43 3.13  14 3.13  41 3.16  11 3.16  29 3.17  37 3.18
                            15 3.18  33 3.24  39 3.24  24 3.36
  36  0.444  0.556  0.080-  14 3.13  17 3.15  26 3.15  42 3.19  38 3.19  44 3.19  30 3.19  28 3.19
                            34 3.19  25 3.19  13 3.19  16 3.19
  37  0.443  0.557  0.237-  15 3.12  39 3.13  17 3.14  31 3.15  26 3.16  27 3.18  14 3.18  35 3.18
                            45 3.19  43 3.20  29 3.22  18 3.58
  38  0.444  0.889  0.080-  11 3.12  20 3.12  17 3.15  40 3.19  34 3.19  44 3.19  36 3.19  30 3.19
                            32 3.19  19 3.19  16 3.19  10 3.19
  39  0.443  0.885  0.235-  12 3.04  17 3.10  21 3.13  37 3.13  31 3.13  20 3.14  11 3.15  41 3.17
                            45 3.20  33 3.22  35 3.24  18 3.59
  40  0.778  0.222  0.080-   5 3.13  20 3.13  23 3.15  38 3.19  34 3.19  44 3.19  28 3.19  30 3.19
                            42 3.19   4 3.19  19 3.19  22 3.19
  41  0.773  0.219  0.235-   6 3.07  23 3.09  20 3.12   5 3.14  43 3.16  35 3.16  21 3.16  39 3.17
                            45 3.20  29 3.23  31 3.25  24 3.38
  42  0.778  0.556  0.080-   8 3.12  26 3.15  23 3.15  36 3.19  44 3.19  30 3.19  32 3.19  34 3.19
                            40 3.19  25 3.19   7 3.19  22 3.19
  43  0.775  0.550  0.237-   9 3.09  35 3.13  23 3.14  27 3.15  41 3.16  26 3.17  37 3.20  33 3.20
                             8 3.20  45 3.20  31 3.21  24 3.38
  44  0.778  0.889  0.080-  20 3.12   2 3.14  26 3.16  28 3.19  40 3.19  42 3.19  32 3.19  38 3.19
                            36 3.19   1 3.19  19 3.19  25 3.19
  45  0.780  0.888  0.237-  21 3.09  33 3.13  29 3.15   2 3.15  26 3.16  27 3.16  37 3.19  20 3.20
                            41 3.20  43 3.20  39 3.20   3 3.50
  46  0.983  0.999  0.396-  53 0.99  52 0.99   3 2.20
  47  0.272  0.970  0.412-  54 0.98  55 1.00
  48  0.895  0.247  0.411-  56 0.98  57 1.01
  49  0.643  0.322  0.390-  58 0.99  59 0.99  24 2.19
  50  0.640  0.614  0.386-  60 0.98  61 1.00  27 2.34
  51  0.294  0.690  0.396-  63 0.98  62 1.00  18 2.22
  52  0.966  0.085  0.408-  46 0.99
  53  0.075  0.002  0.411-  46 0.99
  54  0.377  0.071  0.413-  47 0.98
  55  0.245  0.959  0.382-  47 1.00
  56  0.995  0.352  0.408-  48 0.98
  57  0.866  0.215  0.381-  48 1.01
  58  0.656  0.427  0.398-  49 0.99
  59  0.729  0.310  0.404-  49 0.99
  60  0.687  0.720  0.400-  50 0.98
  61  0.522  0.574  0.382-  50 1.00
  62  0.293  0.789  0.406-  51 1.00
  63  0.352  0.666  0.417-  51 0.98
 
  LATTYP: Found a hexagonal cell.
 ALAT       =     9.5557527542
 C/A-ratio  =     3.4141837076
  
  Lattice vectors:
  
 A1 = (   9.5557527542,   0.0000000000,   0.0000000000)
 A2 = (  -4.7778763771,   8.2755246374,   0.0000000000)
 A3 = (   0.0000000000,   0.0000000000,  32.6250953674)


Analysis of symmetry for initial positions (statically):
=====================================================================
 Subroutine PRICEL returns:
 Original cell was already a primitive cell.
 

 Routine SETGRP: Setting up the symmetry group for a 
 hexagonal supercell.


 Subroutine GETGRP returns: Found  1 space group operations
 (whereof  1 operations were pure point group operations)
 out of a pool of 24 trial point group operations.


The static configuration has the point symmetry C_1 .


Analysis of symmetry for dynamics (positions and initial velocities):
=====================================================================
 Subroutine PRICEL returns:
 Original cell was already a primitive cell.
 

 Routine SETGRP: Setting up the symmetry group for a 
 hexagonal supercell.


 Subroutine GETGRP returns: Found  1 space group operations
 (whereof  1 operations were pure point group operations)
 out of a pool of 24 trial point group operations.


The dynamic configuration has the point symmetry C_1 .


Analysis of constrained symmetry for selective dynamics:
=====================================================================
 Subroutine PRICEL returns:
 Original cell was already a primitive cell.
 

 Routine SETGRP: Setting up the symmetry group for a 
 hexagonal supercell.


 Subroutine GETGRP returns: Found  1 space group operations
 (whereof  1 operations were pure point group operations)
 out of a pool of 24 trial point group operations.


The constrained configuration has the point symmetry C_1 .


 Subroutine INISYM returns: Found  1 space group operations
 (whereof  1 operations are pure point group operations),
 and found     1 'primitive' translations

 
 
 KPOINTS: Auto                                    

Automatic generation of k-mesh.
Space group operators:
 irot       det(A)        alpha          n_x          n_y          n_z        tau_x        tau_y        tau_z
    1     1.000000     0.000000     1.000000     0.000000     0.000000     0.000000     0.000000     0.000000
 
 Subroutine IBZKPT returns following result:
 ===========================================
 
 Found      5 irreducible k-points:
 
 Following reciprocal coordinates:
            Coordinates               Weight
  0.000000  0.000000  0.000000      1.000000
  0.333333 -0.000000  0.000000      2.000000
  0.000000  0.333333  0.000000      2.000000
  0.333333  0.333333  0.000000      2.000000
 -0.333333  0.333333  0.000000      2.000000
 
 Following cartesian coordinates:
            Coordinates               Weight
  0.000000  0.000000  0.000000      1.000000
  0.034883  0.020140  0.000000      2.000000
  0.000000  0.040279  0.000000      2.000000
  0.034883  0.060419  0.000000      2.000000
 -0.034883  0.020140  0.000000      2.000000
 
 TETIRR: Found     24 inequivalent tetrahedra from       54


--------------------------------------------------------------------------------------------------------




 Dimension of arrays:
   k-points           NKPTS =      5   k-points in BZ     NKDIM =      5   number of bands    NBANDS=    102
   number of dos      NEDOS =    301   number of ions     NIONS =     63
   non local maximal  LDIM  =      5   non local SUM 2l+1 LMDIM =     13
   total plane-waves  NPLWV = ******
   max r-space proj   IRMAX =   4509   max aug-charges    IRDMAX=  21536
   dimension x,y,z NGX =    72 NGY =   72 NGZ =  250
   dimension x,y,z NGXF=   144 NGYF=  144 NGZF=  500
   support grid    NGXF=   144 NGYF=  144 NGZF=  500
   ions per type =              45   6  12
   NGX,Y,Z   is equivalent  to a cutoff of  12.53, 12.53, 12.74 a.u.
   NGXF,Y,Z  is equivalent  to a cutoff of  25.05, 25.05, 25.48 a.u.

 SYSTEM =  Mg_slab_in_a_box                        
 POSCAR =  Mg   O    H                             

 Startparameter for this run:
   NWRITE =      2    write-flag & timer
   PREC   = accura    normal or accurate (medium, high low for compatibility)
   ISTART =      0    job   : 0-new  1-cont  2-samecut
   ICHARG =      2    charge: 1-file 2-atom 10-const
   ISPIN  =      1    spin polarized calculation?
   LNONCOLLINEAR =      F non collinear calculations
   LSORBIT =      F    spin-orbit coupling
   INIWAV =      1    electr: 0-lowe 1-rand  2-diag
   LASPH  =      T    aspherical Exc in radial PAW
   METAGGA=      F    non-selfconsistent MetaGGA calc.

 Electronic Relaxation 1
   ENCUT  =  520.0 eV  38.22 Ry    6.18 a.u.  17.77 17.77 60.66*2*pi/ulx,y,z
   ENINI  =  520.0     initial cutoff
   ENAUG  =  605.4 eV  augmentation charge cutoff
   NELM   =    300;   NELMIN=  6; NELMDL=-12     # of ELM steps 
   EDIFF  = 0.5E-05   stopping-criterion for ELM
   LREAL  =      T    real-space projection
   NLSPLINE    = F    spline interpolate recip. space projectors
   LCOMPAT=      F    compatible to vasp.4.4
   GGA_COMPAT  = T    GGA compatible to vasp.4.4-vasp.4.6
   LMAXPAW     = -100 max onsite density
   LMAXMIX     =    2 max onsite mixed and CHGCAR
   VOSKOWN=      0    Vosko Wilk Nusair interpolation
   ROPT   =   -0.00025  -0.00025  -0.00025
 Ionic relaxation
   EDIFFG = 0.5E-04   stopping-criterion for IOM
   NSW    =      0    number of steps for IOM
   NBLOCK =      1;   KBLOCK =      1    inner block; outer block 
   IBRION =     -1    ionic relax: 0-MD 1-quasi-New 2-CG
   NFREE  =      0    steps in history (QN), initial steepest desc. (CG)
   ISIF   =      2    stress and relaxation
   IWAVPR =     10    prediction:  0-non 1-charg 2-wave 3-comb
   ISYM   =      2    0-nonsym 1-usesym 2-fastsym
   LCORR  =      T    Harris-Foulkes like correction to forces

   POTIM  = 0.5000    time-step for ionic-motion
   TEIN   =    0.0    initial temperature
   TEBEG  =    0.0;   TEEND  =   0.0 temperature during run
   SMASS  =  -3.00    Nose mass-parameter (am)
   estimated Nose-frequenzy (Omega)   =  0.10E-29 period in steps =****** mass=  -0.209E-26a.u.
   SCALEE = 1.0000    scale energy and forces
   NPACO  =    256;   APACO  = 16.0  distance and # of slots for P.C.
   PSTRESS=    0.0 pullay stress

  Mass of Ions in am
   POMASS =  24.30 16.00  1.00
  Ionic Valenz
   ZVAL   =   2.00  6.00  1.00
  Atomic Wigner-Seitz radii
   RWIGS  =  -1.00 -1.00 -1.00
  virtual crystal weights 
   VCA    =   1.00  1.00  1.00
   NELECT =     138.0000    total number of electrons
   NUPDOWN=      -1.0000    fix difference up-down

 DOS related values:
   EMIN   =  10.00;   EMAX   =-10.00  energy-range for DOS
   EFERMI =   0.00
   ISMEAR =    -5;   SIGMA  =   0.20  broadening in eV -4-tet -1-fermi 0-gaus

 Electronic relaxation 2 (details)
   IALGO  =     48    algorithm
   LDIAG  =      T    sub-space diagonalisation (order eigenvalues)
   LSUBROT=      F    optimize rotation matrix (better conditioning)
   TURBO    =      0    0=normal 1=particle mesh
   IRESTART =      0    0=no restart 2=restart with 2 vectors
   NREBOOT  =      0    no. of reboots
   NMIN     =      0    reboot dimension
   EREF     =   0.00    reference energy to select bands
   IMIX   =      4    mixing-type and parameters
     AMIX     =   0.40;   BMIX     =  1.00
     AMIX_MAG =   1.60;   BMIX_MAG =  1.00
     AMIN     =   0.10
     WC   =   100.;   INIMIX=   1;  MIXPRE=   1;  MAXMIX= -45

 Intra band minimization:
   WEIMIN = 0.0000     energy-eigenvalue tresh-hold
   EBREAK =  0.12E-07  absolut break condition
   DEPER  =   0.30     relativ break condition  

   TIME   =   0.40     timestep for ELM

  volume/ion in A,a.u.               =      40.95       276.36
  Fermi-wavevector in a.u.,A,eV,Ry     =   0.616828  1.165635  5.176694  0.380476
  Thomas-Fermi vector in A             =   1.674695
 
 Write flags
   LWAVE        =      F    write WAVECAR
   LDOWNSAMPLE  =      F    k-point downsampling of WAVECAR
   LCHARG       =      T    write CHGCAR
   LVTOT        =      F    write LOCPOT, total local potential
   LVHAR        =      T    write LOCPOT, Hartree potential only
   LELF         =      F    write electronic localiz. function (ELF)
   LORBIT       =      0    0 simple, 1 ext, 2 COOP (PROOUT), +10 PAW based schemes


 Dipole corrections
   LMONO  =      F    monopole corrections only (constant potential shift)
   LDIPOL =      T    correct potential (dipole corrections)
   IDIPOL =      3    1-x, 2-y, 3-z, 4-all directions 
   EPSILON=  1.0000000 bulk dielectric constant

 Exchange correlation treatment:
   GGA     =    BO    GGA type
   LEXCH   =    42    internal setting for exchange type
   VOSKOWN=      0    Vosko Wilk Nusair interpolation
   LHFCALC =     F    Hartree Fock is set to
   LHFONE  =     F    Hartree Fock one center treatment
   AEXX    =    0.0000 exact exchange contribution

 vdW DFT:
   LUSE_VDW   =     T    switch on vdW DFT
   Zab_VDW    =-.8491    correlation parameter
   PARAM1     =0.1833
   PARAM2     =0.2200
   PARAM3     =0.0000
   -- rVV10 --
   BPARAM     = 6.3000
   CPARAM     = 0.0093

 Linear response parameters
   LEPSILON=     F    determine dielectric tensor
   LRPA    =     F    only Hartree local field effects (RPA)
   LNABLA  =     F    use nabla operator in PAW spheres
   LVEL    =     F    velocity operator in full k-point grid
   LINTERFAST=   F  fast interpolation
   KINTER  =     0    interpolate to denser k-point grid
   CSHIFT  =0.1000    complex shift for real part using Kramers Kronig
   OMEGAMAX=  -1.0    maximum frequency
   DEG_THRESHOLD= 0.2000000E-02 threshold for treating states as degnerate
   RTIME   =   -0.100 relaxation time in fs
  (WPLASMAI=    0.000 imaginary part of plasma frequency in eV, 0.658/RTIME)
   DFIELD  = 0.0000000 0.0000000 0.0000000 field for delta impulse in time
 
 Orbital magnetization related:
   ORBITALMAG=     F  switch on orbital magnetization
   LCHIMAG   =     F  perturbation theory with respect to B field
   DQ        =  0.001000  dq finite difference perturbation B field
   LLRAUG    =     F  two centre corrections for induced B field



--------------------------------------------------------------------------------------------------------


 Static calculation
 charge density and potential will be updated during run
 non-spin polarized calculation
 RMM-DIIS sequential band-by-band
 perform sub-space diagonalisation
    before iterative eigenvector-optimisation
 modified Broyden-mixing scheme, WC =      100.0
 initial mixing is a Kerker type mixing with AMIX =  0.4000 and BMIX =      1.0000
 Hartree-type preconditioning will be used
 using additional bands           33
 real space projection scheme for non local part
 use partial core corrections
 calculate Harris-corrections to forces 
   (improved forces if not selfconsistent)
 use gradient corrections 
 use of overlap-Matrix (Vanderbilt PP)
 Fermi weights with tetrahedron method with Bloechl corrections


--------------------------------------------------------------------------------------------------------


  energy-cutoff  :      520.00
  volume of cell :     2579.96
      direct lattice vectors                 reciprocal lattice vectors
     9.555752754  0.000000000  0.000000000     0.104649003  0.060419130  0.000000000
    -4.777876377  8.275524637  0.000000000     0.000000000  0.120838260  0.000000000
     0.000000000  0.000000000 32.625095367     0.000000000  0.000000000  0.030651251

  length of vectors
     9.555752754  9.555752754 32.625095367     0.120838260  0.120838260  0.030651251


 
 k-points in units of 2pi/SCALE and weight: Auto                                    
   0.00000000  0.00000000  0.00000000       0.111
   0.03488300  0.02013971  0.00000000       0.222
   0.00000000  0.04027942  0.00000000       0.222
   0.03488300  0.06041913  0.00000000       0.222
  -0.03488300  0.02013971  0.00000000       0.222
 
 k-points in reciprocal lattice and weights: Auto                                    
   0.00000000  0.00000000  0.00000000       0.111
   0.33333333 -0.00000000  0.00000000       0.222
   0.00000000  0.33333333  0.00000000       0.222
   0.33333333  0.33333333  0.00000000       0.222
  -0.33333333  0.33333333  0.00000000       0.222
 
 position of ions in fractional coordinates (direct lattice) 
   0.00000000  0.00000000  0.00000000
   0.99879907  0.99952194  0.15789323
   0.99839971  0.00042915  0.32884739
   0.00000001  0.33333336  0.00000000
   0.99972697  0.33262361  0.15737588
   0.99649590  0.33191082  0.30967452
   0.00000002  0.66666672  0.00000000
   0.99852997  0.66441120  0.15721736
   0.00006717  0.66881693  0.31260879
   0.33333334  0.00000000  0.00000000
   0.33358536  0.99952956  0.15705809
   0.32663229  0.99736694  0.30785825
   0.33333335  0.33333336  0.00000000
   0.33295254  0.33316262  0.15751099
   0.32577605  0.33303423  0.31386404
   0.33333336  0.66666672  0.00000000
   0.33277647  0.66567423  0.15812265
   0.32257205  0.66444969  0.32985659
   0.66666668  0.00000000  0.00000000
   0.66613155  0.99841463  0.15723671
   0.66326260  0.99451803  0.31296505
   0.66666668  0.33333336  0.00000000
   0.66597249  0.33289112  0.15812819
   0.65961814  0.31883170  0.32283165
   0.66666670  0.66666672  0.00000000
   0.66665389  0.66576686  0.15831895
   0.66803662  0.66488289  0.31563138
   0.11111113  0.22222222  0.07982145
   0.10986403  0.21725952  0.23573836
   0.11111114  0.55555561  0.07982145
   0.11426501  0.55783749  0.23567065
   0.11111116  0.88888894  0.07982145
   0.10718633  0.88618101  0.23341428
   0.44444450  0.22222222  0.07982145
   0.44564963  0.22488687  0.23528415
   0.44444450  0.55555561  0.07982145
   0.44339791  0.55686497  0.23674641
   0.44444451  0.88888894  0.07982145
   0.44344326  0.88473538  0.23506484
   0.77777779  0.22222222  0.07982145
   0.77328747  0.21912291  0.23459539
   0.77777781  0.55555561  0.07982145
   0.77455445  0.54988036  0.23722663
   0.77777784  0.88888894  0.07982145
   0.78018509  0.88778174  0.23704332
   0.98264917  0.99860559  0.39620672
   0.27185820  0.96990711  0.41160219
   0.89499995  0.24724609  0.41052903
   0.64326721  0.32166750  0.38990518
   0.63957729  0.61421793  0.38624437
   0.29394809  0.69026140  0.39638273
   0.96552860  0.08451683  0.40782162
   0.07493401  0.00168638  0.41058461
   0.37672962  0.07051019  0.41259258
   0.24505689  0.95881081  0.38159752
   0.99509523  0.35202443  0.40805820
   0.86587512  0.21453205  0.38106160
   0.65588137  0.42734219  0.39765150
   0.72873147  0.31005971  0.40393122
   0.68657187  0.72034460  0.39976562
   0.52196125  0.57413179  0.38177960
   0.29270829  0.78903722  0.40574167
   0.35206243  0.66583594  0.41722264
 
 position of ions in cartesian coordinates  (Angst):
   0.00000000  0.00000000  0.00000000
   4.76868471  8.27156847  5.15128152
   9.53841040  0.00355142 10.72867760
  -1.59262550  2.75850844  0.00000000
   7.96390922  2.75263486  5.13440317
   7.93643960  2.74673620 10.10316080
  -3.18525100  5.51701689  0.00000000
   6.36723091  5.49835122  5.12923130
  -3.19488275  5.53481095 10.19889168
   3.18525100  0.00000000  0.00000000
  -1.58796942  8.27163146  5.12403515
  -1.64407855  8.25373465 10.04390481
   1.59262550  2.75850844  0.00000000
   1.58980230  2.75709550  5.13881112
   1.52183896  2.75603297 10.23984434
  -0.00000001  5.51701689  0.00000000
  -0.00057950  5.50880347  5.15876668
  -0.09223976  5.49866980 10.76160256
   6.37050200  0.00000000  0.00000000
   1.59508673  8.26240489  5.12986277
   1.58628926  8.23015844 10.21051459
   4.77787638  2.75850844  0.00000000
   4.77335587  2.75484868  5.15894727
   4.77980938  2.63849961 10.53241347
   3.18525100  5.51701689  0.00000000
   3.18942801  5.50957008  5.16517072
   3.20686454  5.50225472 10.29750394
   0.00000017  1.83900547  2.60418248
   0.01179435  1.79793648  7.69098644
  -1.59262550  4.59751415  2.60418248
  -1.57339041  4.61639793  7.68877755
  -3.18525076  7.35602236  2.60418248
  -3.20981725  7.33361281  7.61516313
   3.18525147  1.83900547  2.60418248
   3.18403602  1.86105686  7.67616781
   1.59262574  4.59751415  2.60418248
   1.57636880  4.60834979  7.72387429
   0.00000039  7.35602236  2.60418248
   0.01027793  7.32164941  7.66901268
   6.37050200  1.83900547  2.60418248
   6.34240165  1.81335708  7.65369695
   4.77787638  4.59751415  2.60418248
   4.77419038  4.55054848  7.73954128
   3.18525124  7.35602236  2.60418248
   3.21354444  7.34685963  7.73356077
   4.61873840  8.26398519 12.92628211
  -2.03628647  8.02649015 13.42856079
   7.37108699  2.04609110 13.39354871
   4.61001485  2.66196732 12.72069377
   3.17698513  5.08297558 12.60125938
  -0.48908841  5.71227524 12.93202423
   8.82254156  0.69942112 13.30521916
   0.70799356  0.01395567 13.39536212
   3.26304609  0.58350882 13.46087222
  -2.23937649  7.93466251 12.44965533
   7.82695473  2.91318685 13.31293757
   7.24908093  1.77536531 12.43217115
   4.22565210  3.53648080 12.97341806
   5.48215079  2.56590679 13.17829446
   3.11899362  5.96122946 13.04239132
   2.24460193  4.75124178 12.45559594
  -0.97287423  6.52969695 13.23736073
   0.18293970  5.51014170 13.61192850
 


--------------------------------------------------------------------------------------------------------


 k-point  1 :   0.0000 0.0000 0.0000  plane waves:   69403
 k-point  2 :   0.3333-0.0000 0.0000  plane waves:   69509
 k-point  3 :   0.0000 0.3333 0.0000  plane waves:   69509
 k-point  4 :   0.3333 0.3333 0.0000  plane waves:   69474
 k-point  5 :  -0.3333 0.3333 0.0000  plane waves:   69509

 maximum and minimum number of plane-waves per node :      2924     2870

 maximum number of plane-waves:     69509
 maximum index in each direction: 
   IXMAX=   18   IYMAX=   17   IZMAX=   60
   IXMIN=  -18   IYMIN=  -18   IZMIN=  -60


 real space projection operators:
  total allocation   :      22583.55 KBytes
  max/ min on nodes  :       1304.99        520.21


 parallel 3D FFT for wavefunctions:
    minimum data exchange during FFTs selected (reduces bandwidth)
 parallel 3D FFT for charge:
    minimum data exchange during FFTs selected (reduces bandwidth)


 total amount of memory used by VASP MPI-rank0    62220. kBytes
=======================================================================

   base      :      30000. kBytes
   nonlr-proj:       6317. kBytes
   fftplans  :       6459. kBytes
   grid      :      11407. kBytes
   one-center:         24. kBytes
   wavefun   :       8013. kBytes
 
     INWAV:  cpu time    0.0001: real time    0.0011
 Broyden mixing: mesh for mixing (old mesh)
   NGX = 35   NGY = 35   NGZ =121
  (NGX  =144   NGY  =144   NGZ  =500)
  gives a total of 148225 points

 initial charge density was supplied:
 charge density of overlapping atoms calculated
 number of electron     138.0000000 magnetization 
 keeping initial charge density in first step


--------------------------------------------------------------------------------------------------------


 Maximum index for non-local projection operator          296
 Maximum index for augmentation-charges          837 (set IRDMAX)


--------------------------------------------------------------------------------------------------------


 First call to EWALD:  gamma=   0.129
 Maximum number of real-space cells 4x 4x 1
 Maximum number of reciprocal cells 2x 2x 6

    FEWALD:  cpu time    0.0021: real time    0.0021


--------------------------------------- Iteration      1(   1)  ---------------------------------------


vdW kernel read from vdw_kernel.bindat
  0.0000  0.2424  0.5071  0.7962  1.1119  1.4567  1.8333  2.2446  2.6937  3.1842
  3.7199  4.3049  4.9438  5.6415  6.4036  7.2358  8.1446  9.1372 10.2212 11.4050
 12.6979 14.1099 15.6519 17.3360 19.1751 21.1837 23.3773 25.7729 28.3892 31.2465
 34.3669 37.7748 41.4965 45.5611 50.0000
 
    POTLOK:  cpu time    5.3435: real time    5.4924
    SETDIJ:  cpu time    0.1348: real time    0.1349
    EDDIAG:  cpu time    0.4829: real time    0.4838
  RMM-DIIS:  cpu time    1.0491: real time    1.0493
    ORTHCH:  cpu time    0.0712: real time    0.0712
 BZINTS: Fermi energy:  9.572855;138.000000 electrons
         Band energy: 212.016937;  BLOECHL correction: -0.163307
       DOS:  cpu time    0.0028: real time    0.0028
    --------------------------------------------
      LOOP:  cpu time    7.0843: real time    7.2344

 eigenvalue-minimisations  :   510
 total energy-change (2. order) : 0.1245773E+04  (-0.2793343E+04)
 number of electron     138.0000000 magnetization 
 augmentation part      138.0000000 magnetization 

 DIPCOR: dipole corrections for dipol
 direction  3 min pos   355,
 dipolmoment           0.000000      0.000000     -0.000400 electrons x Angstroem
 Tr[quadrupol]     -1853.473255

 energy correction for charged system         0.000000 eV
 dipol+quadrupol energy correction           -0.000000 eV
 added-field ion interaction          0.004282 eV  (added to PSCEN)


 Free energy of the ion-electron system (eV)
  ---------------------------------------------------
  alpha Z        PSCENC =        63.16534514
  Ewald energy   TEWEN  =     12987.16419224
  -Hartree energ DENC   =    -16209.99646881
  -exchange      EXHF   =         0.00000000
  -V(xc)+E(xc)   XCENC  =     -2050.70996873
  PAW double counting   =      5135.15659847    -2719.01140655
  entropy T*S    EENTRO =         0.00000000
  eigenvalues    EBANDS =       212.01693664
  atomic energy  EATOM  =      3827.98814510
  Solvation  Ediel_sol  =         0.00000000
  ---------------------------------------------------
  free energy    TOTEN  =      1245.77337351 eV

  energy without entropy =     1245.77337351  energy(sigma->0) =     1245.77337351


--------------------------------------------------------------------------------------------------------




--------------------------------------- Iteration      1(   2)  ---------------------------------------


    EDDIAG:  cpu time    0.4853: real time    0.5101
  RMM-DIIS:  cpu time    1.0490: real time    1.0492
    ORTHCH:  cpu time    0.0705: real time    0.0705
 BZINTS: Fermi energy:  2.082595;138.000000 electrons
         Band energy:-485.811666;  BLOECHL correction: -0.215723
       DOS:  cpu time    0.0030: real time    0.0030
    --------------------------------------------
      LOOP:  cpu time    1.6078: real time    1.6328

 eigenvalue-minimisations  :   510
 total energy-change (2. order) :-0.6978286E+03  (-0.7570502E+03)
 number of electron     138.0000000 magnetization 
 augmentation part      138.0000000 magnetization 

 DIPCOR: dipole corrections for dipol
 direction  3 min pos   355,
 dipolmoment           0.000000      0.000000     -0.000400 electrons x Angstroem
 Tr[quadrupol]     -1853.473255

 energy correction for charged system         0.000000 eV
 dipol+quadrupol energy correction           -0.000000 eV
 added-field ion interaction          0.004282 eV  (added to PSCEN)


 Free energy of the ion-electron system (eV)
  ---------------------------------------------------
  alpha Z        PSCENC =        63.16534514
  Ewald energy   TEWEN  =     12987.16419224
  -Hartree energ DENC   =    -16209.99646881
  -exchange      EXHF   =         0.00000000
  -V(xc)+E(xc)   XCENC  =     -2050.70996873
  PAW double counting   =      5135.15659847    -2719.01140655
  entropy T*S    EENTRO =         0.00000000
  eigenvalues    EBANDS =      -485.81166578
  atomic energy  EATOM  =      3827.98814510
  Solvation  Ediel_sol  =         0.00000000
  ---------------------------------------------------
  free energy    TOTEN  =       547.94477110 eV

  energy without entropy =      547.94477110  energy(sigma->0) =      547.94477110


--------------------------------------------------------------------------------------------------------




--------------------------------------- Iteration      1(   3)  ---------------------------------------


    EDDIAG:  cpu time    0.4849: real time    0.5108
  RMM-DIIS:  cpu time    1.0466: real time    1.0469
    ORTHCH:  cpu time    0.0706: real time    0.0706
 BZINTS: Fermi energy:  0.376216;138.000000 electrons
         Band energy:-720.998444;  BLOECHL correction: -0.405001
       DOS:  cpu time    0.0032: real time    0.0032
    --------------------------------------------
      LOOP:  cpu time    1.6053: real time    1.6314

 eigenvalue-minimisations  :   510
 total energy-change (2. order) :-0.2351868E+03  (-0.3002292E+03)
 number of electron     138.0000000 magnetization 
 augmentation part      138.0000000 magnetization 

 DIPCOR: dipole corrections for dipol
 direction  3 min pos   355,
 dipolmoment           0.000000      0.000000     -0.000400 electrons x Angstroem
 Tr[quadrupol]     -1853.473255

 energy correction for charged system         0.000000 eV
 dipol+quadrupol energy correction           -0.000000 eV
 added-field ion interaction          0.004282 eV  (added to PSCEN)


 Free energy of the ion-electron system (eV)
  ---------------------------------------------------
  alpha Z        PSCENC =        63.16534514
  Ewald energy   TEWEN  =     12987.16419224
  -Hartree energ DENC   =    -16209.99646881
  -exchange      EXHF   =         0.00000000
  -V(xc)+E(xc)   XCENC  =     -2050.70996873
  PAW double counting   =      5135.15659847    -2719.01140655
  entropy T*S    EENTRO =         0.00000000
  eigenvalues    EBANDS =      -720.99844381
  atomic energy  EATOM  =      3827.98814510
  Solvation  Ediel_sol  =         0.00000000
  ---------------------------------------------------
  free energy    TOTEN  =       312.75799306 eV

  energy without entropy =      312.75799306  energy(sigma->0) =      312.75799306


--------------------------------------------------------------------------------------------------------




--------------------------------------- Iteration      1(   4)  ---------------------------------------


    EDDIAG:  cpu time    0.4986: real time    0.5134
  RMM-DIIS:  cpu time    1.0460: real time    1.0462
    ORTHCH:  cpu time    0.0707: real time    0.0708
 BZINTS: Fermi energy: -0.690694;138.000000 electrons
         Band energy:-896.940029;  BLOECHL correction: -0.072759
       DOS:  cpu time    0.0034: real time    0.0034
    --------------------------------------------
      LOOP:  cpu time    1.6188: real time    1.6338

 eigenvalue-minimisations  :   510
 total energy-change (2. order) :-0.1759416E+03  (-0.1517187E+03)
 number of electron     138.0000000 magnetization 
 augmentation part      138.0000000 magnetization 

 DIPCOR: dipole corrections for dipol
 direction  3 min pos   355,
 dipolmoment           0.000000      0.000000     -0.000400 electrons x Angstroem
 Tr[quadrupol]     -1853.473255

 energy correction for charged system         0.000000 eV
 dipol+quadrupol energy correction           -0.000000 eV
 added-field ion interaction          0.004282 eV  (added to PSCEN)


 Free energy of the ion-electron system (eV)
  ---------------------------------------------------
  alpha Z        PSCENC =        63.16534514
  Ewald energy   TEWEN  =     12987.16419224
  -Hartree energ DENC   =    -16209.99646881
  -exchange      EXHF   =         0.00000000
  -V(xc)+E(xc)   XCENC  =     -2050.70996873
  PAW double counting   =      5135.15659847    -2719.01140655
  entropy T*S    EENTRO =         0.00000000
  eigenvalues    EBANDS =      -896.94002896
  atomic energy  EATOM  =      3827.98814510
  Solvation  Ediel_sol  =         0.00000000
  ---------------------------------------------------
  free energy    TOTEN  =       136.81640792 eV

  energy without entropy =      136.81640792  energy(sigma->0) =      136.81640792


--------------------------------------------------------------------------------------------------------




--------------------------------------- Iteration      1(   5)  ---------------------------------------


    EDDIAG:  cpu time    0.4872: real time    0.5085
  RMM-DIIS:  cpu time    1.0532: real time    1.0534
    ORTHCH:  cpu time    0.0708: real time    0.0708
 BZINTS: Fermi energy: -1.267766;138.000000 electrons
         Band energy:***********;  BLOECHL correction: -0.132636
       DOS:  cpu time    0.0037: real time    0.0037
    --------------------------------------------
      LOOP:  cpu time    1.6149: real time    1.6363

 eigenvalue-minimisations  :   510
 total energy-change (2. order) :-0.1173023E+03  (-0.9442812E+02)
 number of electron     138.0000000 magnetization 
 augmentation part      138.0000000 magnetization 

 DIPCOR: dipole corrections for dipol
 direction  3 min pos   355,
 dipolmoment           0.000000      0.000000     -0.000400 electrons x Angstroem
 Tr[quadrupol]     -1853.473255

 energy correction for charged system         0.000000 eV
 dipol+quadrupol energy correction           -0.000000 eV
 added-field ion interaction          0.004282 eV  (added to PSCEN)


 Free energy of the ion-electron system (eV)
  ---------------------------------------------------
  alpha Z        PSCENC =        63.16534514
  Ewald energy   TEWEN  =     12987.16419224
  -Hartree energ DENC   =    -16209.99646881
  -exchange      EXHF   =         0.00000000
  -V(xc)+E(xc)   XCENC  =     -2050.70996873
  PAW double counting   =      5135.15659847    -2719.01140655
  entropy T*S    EENTRO =         0.00000000
  eigenvalues    EBANDS =     -1014.24232776
  atomic energy  EATOM  =      3827.98814510
  Solvation  Ediel_sol  =         0.00000000
  ---------------------------------------------------
  free energy    TOTEN  =        19.51410911 eV

  energy without entropy =       19.51410911  energy(sigma->0) =       19.51410911


--------------------------------------------------------------------------------------------------------




--------------------------------------- Iteration      1(   6)  ---------------------------------------


    EDDIAG:  cpu time    0.4960: real time    0.5217
  RMM-DIIS:  cpu time    1.0700: real time    1.0719
    ORTHCH:  cpu time    0.0719: real time    0.0719
 BZINTS: Fermi energy: -1.359918;138.000000 electrons
         Band energy:***********;  BLOECHL correction: -0.058542
       DOS:  cpu time    0.0030: real time    0.0030
    --------------------------------------------
      LOOP:  cpu time    1.6409: real time    1.6685

 eigenvalue-minimisations  :   510
 total energy-change (2. order) :-0.6379086E+02  (-0.4857326E+02)
 number of electron     138.0000000 magnetization 
 augmentation part      138.0000000 magnetization 

 DIPCOR: dipole corrections for dipol
 direction  3 min pos   355,
 dipolmoment           0.000000      0.000000     -0.000400 electrons x Angstroem
 Tr[quadrupol]     -1853.473255

 energy correction for charged system         0.000000 eV
 dipol+quadrupol energy correction           -0.000000 eV
 added-field ion interaction          0.004282 eV  (added to PSCEN)


 Free energy of the ion-electron system (eV)
  ---------------------------------------------------
  alpha Z        PSCENC =        63.16534514
  Ewald energy   TEWEN  =     12987.16419224
  -Hartree energ DENC   =    -16209.99646881
  -exchange      EXHF   =         0.00000000
  -V(xc)+E(xc)   XCENC  =     -2050.70996873
  PAW double counting   =      5135.15659847    -2719.01140655
  entropy T*S    EENTRO =         0.00000000
  eigenvalues    EBANDS =     -1078.03318700
  atomic energy  EATOM  =      3827.98814510
  Solvation  Ediel_sol  =         0.00000000
  ---------------------------------------------------
  free energy    TOTEN  =       -44.27675012 eV

  energy without entropy =      -44.27675012  energy(sigma->0) =      -44.27675012


--------------------------------------------------------------------------------------------------------




--------------------------------------- Iteration      1(   7)  ---------------------------------------


    EDDIAG:  cpu time    0.4829: real time    0.5103
  RMM-DIIS:  cpu time    1.0527: real time    1.0538
    ORTHCH:  cpu time    0.0704: real time    0.0705
 BZINTS: Fermi energy: -1.418883;138.000000 electrons
         Band energy:***********;  BLOECHL correction: -0.069305
       DOS:  cpu time    0.0032: real time    0.0032
    --------------------------------------------
      LOOP:  cpu time    1.6091: real time    1.6378

 eigenvalue-minimisations  :   510
 total energy-change (2. order) :-0.2483098E+02  (-0.1898217E+02)
 number of electron     138.0000000 magnetization 
 augmentation part      138.0000000 magnetization 

 DIPCOR: dipole corrections for dipol
 direction  3 min pos   355,
 dipolmoment           0.000000      0.000000     -0.000400 electrons x Angstroem
 Tr[quadrupol]     -1853.473255

 energy correction for charged system         0.000000 eV
 dipol+quadrupol energy correction           -0.000000 eV
 added-field ion interaction          0.004282 eV  (added to PSCEN)


 Free energy of the ion-electron system (eV)
  ---------------------------------------------------
  alpha Z        PSCENC =        63.16534514
  Ewald energy   TEWEN  =     12987.16419224
  -Hartree energ DENC   =    -16209.99646881
  -exchange      EXHF   =         0.00000000
  -V(xc)+E(xc)   XCENC  =     -2050.70996873
  PAW double counting   =      5135.15659847    -2719.01140655
  entropy T*S    EENTRO =         0.00000000
  eigenvalues    EBANDS =     -1102.86416914
  atomic energy  EATOM  =      3827.98814510
  Solvation  Ediel_sol  =         0.00000000
  ---------------------------------------------------
  free energy    TOTEN  =       -69.10773226 eV

  energy without entropy =      -69.10773226  energy(sigma->0) =      -69.10773226


--------------------------------------------------------------------------------------------------------




--------------------------------------- Iteration      1(   8)  ---------------------------------------


    EDDIAG:  cpu time    0.4836: real time    0.5097
  RMM-DIIS:  cpu time    1.0493: real time    1.0498
    ORTHCH:  cpu time    0.0709: real time    0.0710
 BZINTS: Fermi energy: -1.450987;138.000000 electrons
         Band energy:***********;  BLOECHL correction: -0.087939
       DOS:  cpu time    0.0032: real time    0.0032
    --------------------------------------------
      LOOP:  cpu time    1.6071: real time    1.6336

 eigenvalue-minimisations  :   510
 total energy-change (2. order) :-0.6593749E+01  (-0.5379138E+01)
 number of electron     138.0000000 magnetization 
 augmentation part      138.0000000 magnetization 

 DIPCOR: dipole corrections for dipol
 direction  3 min pos   355,
 dipolmoment           0.000000      0.000000     -0.000400 electrons x Angstroem
 Tr[quadrupol]     -1853.473255

 energy correction for charged system         0.000000 eV
 dipol+quadrupol energy correction           -0.000000 eV
 added-field ion interaction          0.004282 eV  (added to PSCEN)


 Free energy of the ion-electron system (eV)
  ---------------------------------------------------
  alpha Z        PSCENC =        63.16534514
  Ewald energy   TEWEN  =     12987.16419224
  -Hartree energ DENC   =    -16209.99646881
  -exchange      EXHF   =         0.00000000
  -V(xc)+E(xc)   XCENC  =     -2050.70996873
  PAW double counting   =      5135.15659847    -2719.01140655
  entropy T*S    EENTRO =         0.00000000
  eigenvalues    EBANDS =     -1109.45791796
  atomic energy  EATOM  =      3827.98814510
  Solvation  Ediel_sol  =         0.00000000
  ---------------------------------------------------
  free energy    TOTEN  =       -75.70148109 eV

  energy without entropy =      -75.70148109  energy(sigma->0) =      -75.70148109


--------------------------------------------------------------------------------------------------------




--------------------------------------- Iteration      1(   9)  ---------------------------------------


    EDDIAG:  cpu time    0.4856: real time    0.5127
  RMM-DIIS:  cpu time    2.7975: real time    2.7992
    ORTHCH:  cpu time    0.0712: real time    0.0713
 BZINTS: Fermi energy: -1.482362;138.000000 electrons
         Band energy:***********;  BLOECHL correction: -0.087605
       DOS:  cpu time    0.0030: real time    0.0030
    --------------------------------------------
      LOOP:  cpu time    3.3573: real time    3.3861

 eigenvalue-minimisations  :  1513
 total energy-change (2. order) :-0.2114670E+01  (-0.2029137E+01)
 number of electron     138.0000000 magnetization 
 augmentation part      138.0000000 magnetization 

 DIPCOR: dipole corrections for dipol
 direction  3 min pos   355,
 dipolmoment           0.000000      0.000000     -0.000400 electrons x Angstroem
 Tr[quadrupol]     -1853.473255

 energy correction for charged system         0.000000 eV
 dipol+quadrupol energy correction           -0.000000 eV
 added-field ion interaction          0.004282 eV  (added to PSCEN)


 Free energy of the ion-electron system (eV)
  ---------------------------------------------------
  alpha Z        PSCENC =        63.16534514
  Ewald energy   TEWEN  =     12987.16419224
  -Hartree energ DENC   =    -16209.99646881
  -exchange      EXHF   =         0.00000000
  -V(xc)+E(xc)   XCENC  =     -2050.70996873
  PAW double counting   =      5135.15659847    -2719.01140655
  entropy T*S    EENTRO =         0.00000000
  eigenvalues    EBANDS =     -1111.57258780
  atomic energy  EATOM  =      3827.98814510
  Solvation  Ediel_sol  =         0.00000000
  ---------------------------------------------------
  free energy    TOTEN  =       -77.81615093 eV

  energy without entropy =      -77.81615093  energy(sigma->0) =      -77.81615093


--------------------------------------------------------------------------------------------------------




--------------------------------------- Iteration      1(  10)  ---------------------------------------


    EDDIAG:  cpu time    0.4926: real time    0.5104
  RMM-DIIS:  cpu time    3.2240: real time    3.2295
    ORTHCH:  cpu time    0.0710: real time    0.0711
 BZINTS: Fermi energy: -1.484064;138.000000 electrons
         Band energy:***********;  BLOECHL correction: -0.087321
       DOS:  cpu time    0.0029: real time    0.0029
    --------------------------------------------
      LOOP:  cpu time    3.7905: real time    3.8139

 eigenvalue-minimisations  :  1771
 total energy-change (2. order) :-0.2899838E+00  (-0.2974106E+00)
 number of electron     138.0000000 magnetization 
 augmentation part      138.0000000 magnetization 

 DIPCOR: dipole corrections for dipol
 direction  3 min pos   355,
 dipolmoment           0.000000      0.000000     -0.000400 electrons x Angstroem
 Tr[quadrupol]     -1853.473255

 energy correction for charged system         0.000000 eV
 dipol+quadrupol energy correction           -0.000000 eV
 added-field ion interaction          0.004282 eV  (added to PSCEN)


 Free energy of the ion-electron system (eV)
  ---------------------------------------------------
  alpha Z        PSCENC =        63.16534514
  Ewald energy   TEWEN  =     12987.16419224
  -Hartree energ DENC   =    -16209.99646881
  -exchange      EXHF   =         0.00000000
  -V(xc)+E(xc)   XCENC  =     -2050.70996873
  PAW double counting   =      5135.15659847    -2719.01140655
  entropy T*S    EENTRO =         0.00000000
  eigenvalues    EBANDS =     -1111.86257158
  atomic energy  EATOM  =      3827.98814510
  Solvation  Ediel_sol  =         0.00000000
  ---------------------------------------------------
  free energy    TOTEN  =       -78.10613470 eV

  energy without entropy =      -78.10613470  energy(sigma->0) =      -78.10613470


--------------------------------------------------------------------------------------------------------




--------------------------------------- Iteration      1(  11)  ---------------------------------------


    EDDIAG:  cpu time    0.5212: real time    0.5362
  RMM-DIIS:  cpu time    3.1943: real time    3.1958
    ORTHCH:  cpu time    0.0715: real time    0.0716
 BZINTS: Fermi energy: -1.484401;138.000000 electrons
         Band energy:***********;  BLOECHL correction: -0.087275
       DOS:  cpu time    0.0028: real time    0.0028
    --------------------------------------------
      LOOP:  cpu time    3.7898: real time    3.8063

 eigenvalue-minimisations  :  1753
 total energy-change (2. order) :-0.2460094E-02  (-0.1670777E-01)
 number of electron     138.0000000 magnetization 
 augmentation part      138.0000000 magnetization 

 DIPCOR: dipole corrections for dipol
 direction  3 min pos   355,
 dipolmoment           0.000000      0.000000     -0.000400 electrons x Angstroem
 Tr[quadrupol]     -1853.473255

 energy correction for charged system         0.000000 eV
 dipol+quadrupol energy correction           -0.000000 eV
 added-field ion interaction          0.004282 eV  (added to PSCEN)


 Free energy of the ion-electron system (eV)
  ---------------------------------------------------
  alpha Z        PSCENC =        63.16534514
  Ewald energy   TEWEN  =     12987.16419224
  -Hartree energ DENC   =    -16209.99646881
  -exchange      EXHF   =         0.00000000
  -V(xc)+E(xc)   XCENC  =     -2050.70996873
  PAW double counting   =      5135.15659847    -2719.01140655
  entropy T*S    EENTRO =         0.00000000
  eigenvalues    EBANDS =     -1111.86503167
  atomic energy  EATOM  =      3827.98814510
  Solvation  Ediel_sol  =         0.00000000
  ---------------------------------------------------
  free energy    TOTEN  =       -78.10859480 eV

  energy without entropy =      -78.10859480  energy(sigma->0) =      -78.10859480


--------------------------------------------------------------------------------------------------------




--------------------------------------- Iteration      1(  12)  ---------------------------------------


    EDDIAG:  cpu time    0.4926: real time    0.5153
  RMM-DIIS:  cpu time    3.2606: real time    3.2622
    ORTHCH:  cpu time    0.0707: real time    0.0707
 BZINTS: Fermi energy: -1.484432;138.000000 electrons
         Band energy:***********;  BLOECHL correction: -0.087282
       DOS:  cpu time    0.0030: real time    0.0030
    CHARGE:  cpu time    0.1306: real time    0.1307
    MIXING:  cpu time    0.0053: real time    0.0053
    --------------------------------------------
      LOOP:  cpu time    3.9628: real time    3.9873

 eigenvalue-minimisations  :  1807
 total energy-change (2. order) :-0.2604094E-02  (-0.3295631E-02)
 number of electron     138.0000011 magnetization 
 augmentation part        5.1998206 magnetization 

 DIPCOR: dipole corrections for dipol
 direction  3 min pos   355,
 dipolmoment           0.000000      0.000000     -0.000400 electrons x Angstroem
 Tr[quadrupol]     -1853.473255

 energy correction for charged system         0.000000 eV
 dipol+quadrupol energy correction           -0.000000 eV
 added-field ion interaction          0.004282 eV  (added to PSCEN)


 Broyden mixing:
  rms(total) = 0.19370E+01    rms(broyden)= 0.19359E+01
  rms(prec ) = 0.20319E+01
  weight for this iteration     100.00

 Free energy of the ion-electron system (eV)
  ---------------------------------------------------
  alpha Z        PSCENC =        63.16534514
  Ewald energy   TEWEN  =     12987.16419224
  -Hartree energ DENC   =    -16209.99646881
  -exchange      EXHF   =         0.00000000
  -V(xc)+E(xc)   XCENC  =     -2050.70996873
  PAW double counting   =      5135.15659847    -2719.01140655
  entropy T*S    EENTRO =         0.00000000
  eigenvalues    EBANDS =     -1111.86763576
  atomic energy  EATOM  =      3827.98814510
  Solvation  Ediel_sol  =         0.00000000
  ---------------------------------------------------
  free energy    TOTEN  =       -78.11119889 eV

  energy without entropy =      -78.11119889  energy(sigma->0) =      -78.11119889


--------------------------------------------------------------------------------------------------------




--------------------------------------- Iteration      1(  13)  ---------------------------------------


    POTLOK:  cpu time    4.9316: real time    4.9562
    SETDIJ:  cpu time    0.1355: real time    0.1355
    EDDIAG:  cpu time    0.4820: real time    0.4826
  RMM-DIIS:  cpu time    2.6815: real time    2.6828
    ORTHCH:  cpu time    0.0720: real time    0.0721
 BZINTS: Fermi energy: -0.984034;138.000000 electrons
         Band energy:-938.983196;  BLOECHL correction: -0.080390
       DOS:  cpu time    0.0030: real time    0.0030
    CHARGE:  cpu time    0.1274: real time    0.1275
    MIXING:  cpu time    0.0042: real time    0.0043
    --------------------------------------------
      LOOP:  cpu time    8.4373: real time    8.4639

 eigenvalue-minimisations  :  1468
 total energy-change (2. order) : 0.9802991E+01  (-0.5639032E+01)
 number of electron     138.0000009 magnetization 
 augmentation part        4.4802508 magnetization 

 DIPCOR: dipole corrections for dipol
 direction  3 min pos   361,
 dipolmoment           0.000000      0.000000      0.131696 electrons x Angstroem
 Tr[quadrupol]     -1865.542631

 energy correction for charged system         0.000000 eV
 dipol+quadrupol energy correction           -0.000608 eV
 added-field ion interaction         -0.909296 eV  (added to PSCEN)


 Broyden mixing:
  rms(total) = 0.74640E+00    rms(broyden)= 0.74591E+00
  rms(prec ) = 0.80827E+00
  weight for this iteration     100.00

 eigenvalues of (default mixing * dielectric matrix)
  average eigenvalue GAMMA=   0.9722
  0.9722

 Free energy of the ion-electron system (eV)
  ---------------------------------------------------
  alpha Z        PSCENC =        62.25115854
  Ewald energy   TEWEN  =     12987.16419224
  -Hartree energ DENC   =    -16379.04738697
  -exchange      EXHF   =         0.00000000
  -V(xc)+E(xc)   XCENC  =     -2041.33808185
  PAW double counting   =      5559.36192947    -3145.70496841
  entropy T*S    EENTRO =         0.00000000
  eigenvalues    EBANDS =      -938.98319601
  atomic energy  EATOM  =      3827.98814510
  Solvation  Ediel_sol  =         0.00000000
  ---------------------------------------------------
  free energy    TOTEN  =       -68.30820788 eV

  energy without entropy =      -68.30820788  energy(sigma->0) =      -68.30820788


--------------------------------------------------------------------------------------------------------




--------------------------------------- Iteration      1(  14)  ---------------------------------------


    POTLOK:  cpu time    4.9445: real time    4.9724
    SETDIJ:  cpu time    0.1356: real time    0.1356
    EDDIAG:  cpu time    0.4761: real time    0.4766
  RMM-DIIS:  cpu time    2.7257: real time    2.7279
    ORTHCH:  cpu time    0.0710: real time    0.0710
 BZINTS: Fermi energy: -0.800654;138.000000 electrons
         Band energy:-956.663616;  BLOECHL correction: -0.191501
       DOS:  cpu time    0.0030: real time    0.0030
    CHARGE:  cpu time    0.1280: real time    0.1280
    MIXING:  cpu time    0.0036: real time    0.0036
    --------------------------------------------
      LOOP:  cpu time    8.4874: real time    8.5181

 eigenvalue-minimisations  :  1459
 total energy-change (2. order) :-0.4622609E+01  (-0.3907678E+00)
 number of electron     138.0000009 magnetization 
 augmentation part        4.4140454 magnetization 

 DIPCOR: dipole corrections for dipol
 direction  3 min pos   376,
 dipolmoment           0.000000      0.000000     -1.075978 electrons x Angstroem
 Tr[quadrupol]     -1858.521868

 energy correction for charged system         0.000000 eV
 dipol+quadrupol energy correction           -0.040600 eV
 added-field ion interaction         -2.764003 eV  (added to PSCEN)


 Broyden mixing:
  rms(total) = 0.63074E+00    rms(broyden)= 0.63070E+00
  rms(prec ) = 0.14463E+01
  weight for this iteration     100.00

 eigenvalues of (default mixing * dielectric matrix)
  average eigenvalue GAMMA=   1.1304
  1.1304  1.1304

 Free energy of the ion-electron system (eV)
  ---------------------------------------------------
  alpha Z        PSCENC =        60.35646007
  Ewald energy   TEWEN  =     12987.16419224
  -Hartree energ DENC   =    -16366.19467112
  -exchange      EXHF   =         0.00000000
  -V(xc)+E(xc)   XCENC  =     -2039.17930461
  PAW double counting   =      5740.74401852    -3327.14604084
  entropy T*S    EENTRO =         0.00000000
  eigenvalues    EBANDS =      -956.66361609
  atomic energy  EATOM  =      3827.98814510
  Solvation  Ediel_sol  =         0.00000000
  ---------------------------------------------------
  free energy    TOTEN  =       -72.93081673 eV

  energy without entropy =      -72.93081673  energy(sigma->0) =      -72.93081673


--------------------------------------------------------------------------------------------------------




--------------------------------------- Iteration      1(  15)  ---------------------------------------


    POTLOK:  cpu time    4.9341: real time    4.9550
    SETDIJ:  cpu time    0.1346: real time    0.1346
    EDDIAG:  cpu time    0.4742: real time    0.4747
  RMM-DIIS:  cpu time    2.8323: real time    2.8327
    ORTHCH:  cpu time    0.0717: real time    0.0717
 BZINTS: Fermi energy: -1.038841;138.000000 electrons
         Band energy:-919.459663;  BLOECHL correction: -0.141999
       DOS:  cpu time    0.0031: real time    0.0031
    CHARGE:  cpu time    0.1276: real time    0.1276
    MIXING:  cpu time    0.0037: real time    0.0037
    --------------------------------------------
      LOOP:  cpu time    8.5812: real time    8.6032

 eigenvalue-minimisations  :  1550
 total energy-change (2. order) : 0.4001971E+01  (-0.1464759E+00)
 number of electron     138.0000009 magnetization 
 augmentation part        4.3470529 magnetization 

 DIPCOR: dipole corrections for dipol
 direction  3 min pos   385,
 dipolmoment           0.000000      0.000000      0.162485 electrons x Angstroem
 Tr[quadrupol]     -1866.506175

 energy correction for charged system         0.000000 eV
 dipol+quadrupol energy correction           -0.000926 eV
 added-field ion interaction          1.340962 eV  (added to PSCEN)


 Broyden mixing:
  rms(total) = 0.52621E+00    rms(broyden)= 0.52619E+00
  rms(prec ) = 0.84013E+00
  weight for this iteration     100.00

 eigenvalues of (default mixing * dielectric matrix)
  average eigenvalue GAMMA=   1.1410
  2.0988  1.1825  0.1418

 Free energy of the ion-electron system (eV)
  ---------------------------------------------------
  alpha Z        PSCENC =        64.50109926
  Ewald energy   TEWEN  =     12987.16419224
  -Hartree energ DENC   =    -16403.87704052
  -exchange      EXHF   =         0.00000000
  -V(xc)+E(xc)   XCENC  =     -2038.85914746
  PAW double counting   =      5768.79302789    -3355.17945991
  entropy T*S    EENTRO =         0.00000000
  eigenvalues    EBANDS =      -919.45966277
  atomic energy  EATOM  =      3827.98814510
  Solvation  Ediel_sol  =         0.00000000
  ---------------------------------------------------
  free energy    TOTEN  =       -68.92884617 eV

  energy without entropy =      -68.92884617  energy(sigma->0) =      -68.92884617


--------------------------------------------------------------------------------------------------------




--------------------------------------- Iteration      1(  16)  ---------------------------------------


    POTLOK:  cpu time    5.1923: real time    5.2137
    SETDIJ:  cpu time    0.1350: real time    0.1350
    EDDIAG:  cpu time    0.4749: real time    0.4754
  RMM-DIIS:  cpu time    2.6370: real time    2.6421
    ORTHCH:  cpu time    0.0714: real time    0.0714
 BZINTS: Fermi energy: -0.712136;138.000000 electrons
         Band energy:-906.835997;  BLOECHL correction: -0.102766
       DOS:  cpu time    0.0031: real time    0.0031
    CHARGE:  cpu time    0.1279: real time    0.1279
    MIXING:  cpu time    0.0054: real time    0.0054
    --------------------------------------------
      LOOP:  cpu time    8.6470: real time    8.6741

 eigenvalue-minimisations  :  1443
 total energy-change (2. order) : 0.1245100E+01  (-0.9731386E-01)
 number of electron     138.0000009 magnetization 
 augmentation part        4.4354495 magnetization 

 DIPCOR: dipole corrections for dipol
 direction  3 min pos   389,
 dipolmoment           0.000000      0.000000     -0.321400 electrons x Angstroem
 Tr[quadrupol]     -1868.457378

 energy correction for charged system         0.000000 eV
 dipol+quadrupol energy correction           -0.003623 eV
 added-field ion interaction         -3.464396 eV  (added to PSCEN)


 Broyden mixing:
  rms(total) = 0.18933E+00    rms(broyden)= 0.18930E+00
  rms(prec ) = 0.22228E+00
  weight for this iteration     100.00

 eigenvalues of (default mixing * dielectric matrix)
  average eigenvalue GAMMA=   1.0772
  2.4594  1.0141  0.6902  0.1452

 Free energy of the ion-electron system (eV)
  ---------------------------------------------------
  alpha Z        PSCENC =        59.69304504
  Ewald energy   TEWEN  =     12987.16419224
  -Hartree energ DENC   =    -16411.97727374
  -exchange      EXHF   =         0.00000000
  -V(xc)+E(xc)   XCENC  =     -2037.53278429
  PAW double counting   =      5905.56171644    -3491.74479019
  entropy T*S    EENTRO =         0.00000000
  eigenvalues    EBANDS =      -906.83599676
  atomic energy  EATOM  =      3827.98814510
  Solvation  Ediel_sol  =         0.00000000
  ---------------------------------------------------
  free energy    TOTEN  =       -67.68374615 eV

  energy without entropy =      -67.68374615  energy(sigma->0) =      -67.68374615


--------------------------------------------------------------------------------------------------------




--------------------------------------- Iteration      1(  17)  ---------------------------------------


    POTLOK:  cpu time    4.9577: real time    4.9792
    SETDIJ:  cpu time    0.1344: real time    0.1344
    EDDIAG:  cpu time    0.4781: real time    0.4785
  RMM-DIIS:  cpu time    2.5192: real time    2.5215
    ORTHCH:  cpu time    0.0692: real time    0.0693
 BZINTS: Fermi energy: -0.655062;138.000000 electrons
         Band energy:-896.405626;  BLOECHL correction: -0.096808
       DOS:  cpu time    0.0031: real time    0.0031
    CHARGE:  cpu time    0.1297: real time    0.1297
    MIXING:  cpu time    0.0039: real time    0.0039
    --------------------------------------------
      LOOP:  cpu time    8.2953: real time    8.3195

 eigenvalue-minimisations  :  1368
 total energy-change (2. order) : 0.6675768E-01  (-0.2422111E-01)
 number of electron     138.0000009 magnetization 
 augmentation part        4.4347866 magnetization 

 DIPCOR: dipole corrections for dipol
 direction  3 min pos   388,
 dipolmoment           0.000000      0.000000     -0.476555 electrons x Angstroem
 Tr[quadrupol]     -1868.334930

 energy correction for charged system         0.000000 eV
[...]
  0.014  -0.001   0.000   0.053   0.000  -0.000  -0.003  -0.000  -0.000  -0.000   0.011  -0.000  -0.000
  0.001   0.000  -0.001   0.000   0.076   0.000  -0.000  -0.004  -0.003  -0.000  -0.000   0.004   0.000
  0.000   0.000  -0.004  -0.000   0.000   0.000   0.000  -0.000  -0.000  -0.000  -0.000   0.000   0.000
 -0.003   0.000  -0.000  -0.003  -0.000   0.000   0.000   0.000   0.000   0.000  -0.001   0.000   0.000
 -0.000  -0.000   0.000  -0.000  -0.004  -0.000   0.000   0.000   0.000   0.000   0.000  -0.000  -0.000
  0.002   0.000   0.000  -0.000  -0.003  -0.000   0.000   0.000   0.004   0.000   0.000  -0.000  -0.000
 -0.000  -0.000   0.004  -0.000  -0.000  -0.000   0.000   0.000   0.000   0.002   0.000   0.000  -0.000
 -0.021   0.000   0.000   0.011  -0.000  -0.000  -0.001   0.000   0.000   0.000   0.004  -0.000  -0.000
  0.000   0.000  -0.000  -0.000   0.004   0.000   0.000  -0.000  -0.000   0.000  -0.000   0.002   0.000
 -0.002  -0.000  -0.003  -0.000   0.000   0.000   0.000  -0.000  -0.000  -0.000  -0.000   0.000   0.004


------------------------ aborting loop because EDIFF is reached ----------------------------------------


    CHARGE:  cpu time    0.3637: real time    0.3637
    FORLOC:  cpu time    0.0414: real time    0.0414
    FORNL :  cpu time    0.6899: real time    0.6900
    STRESS:  cpu time    2.0880: real time    2.0882
    FORCOR:  cpu time    4.9451: real time    4.9458
    FORHAR:  cpu time    0.0737: real time    0.0737
    MIXING:  cpu time    0.0069: real time    0.0069
    OFIELD:  cpu time    0.0001: real time    0.0001

  FORCE on cell =-STRESS in cart. coord.  units (eV):
  Direction    XX          YY          ZZ          XY          YZ          ZX
  --------------------------------------------------------------------------------------
  Alpha Z    63.16106    63.16106    63.16106
  Ewald   14551.69187 14419.89123-15984.42876  -262.71763   121.39509   116.26589
  Hartree 15451.45984 15342.19764-14349.67890  -184.96313    28.07063    36.92187
  E(xc)    -445.26355  -445.21543  -444.02016    -0.26184     0.54565     0.57043
  Local  -30965.70353-30719.03113 29367.02880   440.22915  -115.89879  -122.37301
  n-local   120.51774   120.45063   112.13933     0.22465     0.75721     0.35523
  augment    44.44932    43.97814    45.69469     0.37096    -2.27304    -2.05554
  Kinetic  1173.75578  1165.99578  1190.82178     6.00249   -32.20991   -29.51863
  Fock        0.00000     0.00000     0.00000     0.00000     0.00000     0.00000
  -------------------------------------------------------------------------------------
  Total      -5.93147    -8.57207     0.71785    -1.11536     0.38685     0.16624
  in kB      -3.68350    -5.32334     0.44579    -0.69265     0.24023     0.10324
  external pressure =       -2.85 kB  Pullay stress =        0.00 kB


 VOLUME and BASIS-vectors are now :
 -----------------------------------------------------------------------------
  energy-cutoff  :      520.00
  volume of cell :     2579.96
      direct lattice vectors                 reciprocal lattice vectors
     9.555752754  0.000000000  0.000000000     0.104649003  0.060419130  0.000000000
    -4.777876377  8.275524637  0.000000000     0.000000000  0.120838260  0.000000000
     0.000000000  0.000000000 32.625095367     0.000000000  0.000000000  0.030651251

  length of vectors
     9.555752754  9.555752754 32.625095367     0.120838260  0.120838260  0.030651251


 FORCES acting on ions
    electron-ion (+dipol)            ewald-force                    non-local-force                 convergence-correction
 -----------------------------------------------------------------------------------------------
   0.427E-01 -.365E-01 0.122E+03   -.382E-02 -.333E-02 -.122E+03   -.225E-01 0.172E-01 -.807E+00   -.704E-05 0.141E-04 -.380E-03
   0.135E+00 -.128E+00 0.567E+02   -.123E+00 0.443E-01 -.567E+02   -.101E-01 0.612E-01 0.100E-01   -.148E-05 0.119E-04 -.236E-02
   -.157E+01 -.163E+01 0.228E+01   0.161E+01 0.156E+01 -.305E+01   -.269E-01 0.429E-01 0.758E+00   -.149E-04 0.868E-06 -.436E-03
   -.207E-01 -.284E-01 0.122E+03   0.366E-02 0.144E-02 -.122E+03   -.370E-02 0.175E-01 -.868E+00   0.346E-05 0.111E-05 -.378E-03
   -.104E+00 -.477E-01 0.565E+02   0.122E+00 0.477E-01 -.565E+02   -.243E-01 -.873E-03 0.531E-01   0.866E-05 0.509E-06 -.236E-02
   -.358E+01 -.337E+01 -.791E+01   0.354E+01 0.330E+01 0.745E+01   0.125E-01 0.635E-01 0.465E+00   -.603E-05 -.605E-05 -.784E-03
   0.298E-01 0.375E-01 0.122E+03   -.567E-02 -.142E-02 -.122E+03   -.173E-01 -.136E-02 -.893E+00   0.668E-05 -.135E-04 -.387E-03
   0.147E-01 0.125E+00 0.567E+02   -.231E-01 -.936E-01 -.568E+02   -.540E-02 -.167E-01 0.675E-01   0.449E-06 -.812E-05 -.235E-02
   -.181E+01 0.117E+01 -.136E+02   0.179E+01 -.112E+01 0.131E+02   0.233E-01 -.177E-01 0.512E+00   -.110E-04 -.163E-04 -.713E-03
   -.345E-01 -.663E-01 0.122E+03   -.113E-02 0.459E-03 -.122E+03   0.999E-02 0.531E-01 -.914E+00   0.695E-05 0.147E-05 -.383E-03
   0.257E-01 -.417E-01 0.568E+02   -.152E-01 -.281E-02 -.569E+02   -.111E-01 0.372E-01 0.635E-01   -.681E-05 0.405E-05 -.236E-02
   -.886E+00 -.221E+00 -.436E+01   0.756E+00 0.128E+00 0.400E+01   0.965E-01 0.856E-01 0.374E+00   0.484E-05 0.102E-04 -.816E-03
   0.153E-01 0.279E-01 0.122E+03   0.772E-03 0.927E-02 -.122E+03   -.164E-01 -.296E-01 -.903E+00   -.106E-04 0.275E-05 -.381E-03
   0.170E+00 -.125E+00 0.565E+02   -.144E+00 0.135E+00 -.566E+02   -.140E-01 -.548E-02 0.493E-01   -.945E-05 0.961E-06 -.236E-02
   0.438E+01 0.108E+01 -.154E+02   -.445E+01 -.970E+00 0.150E+02   0.676E-01 -.910E-01 0.419E+00   -.237E-05 0.151E-05 -.708E-03
   0.200E-01 -.242E-01 0.122E+03   0.912E-02 -.465E-02 -.122E+03   -.280E-01 0.221E-01 -.801E+00   -.279E-05 -.785E-05 -.384E-03
   -.102E+00 0.165E+00 0.565E+02   0.111E+00 -.149E+00 -.565E+02   -.981E-02 -.351E-02 0.648E-02   0.418E-06 -.139E-04 -.235E-02
   -.259E+01 0.456E+01 -.354E+01   0.268E+01 -.475E+01 0.273E+01   -.875E-01 0.173E+00 0.803E+00   0.321E-05 -.903E-05 -.440E-03
   0.321E-01 0.141E-01 0.122E+03   0.495E-02 -.697E-02 -.122E+03   -.327E-01 0.123E-01 -.895E+00   0.230E-08 0.627E-05 -.382E-03
   -.148E+00 0.836E-01 0.567E+02   0.145E+00 -.117E+00 -.567E+02   -.376E-02 0.251E-01 0.525E-01   0.810E-05 0.323E-05 -.236E-02
   0.158E+01 0.241E+01 -.129E+02   -.146E+01 -.239E+01 0.125E+02   -.106E+00 0.558E-02 0.383E+00   0.969E-05 0.104E-04 -.720E-03
   0.349E-01 -.277E-01 0.122E+03   -.440E-02 0.751E-02 -.122E+03   -.168E-01 -.300E-03 -.831E+00   0.731E-05 -.823E-07 -.391E-03
   -.268E-01 -.845E-01 0.568E+02   0.210E-01 0.110E+00 -.568E+02   -.727E-02 -.215E-01 0.160E-01   0.886E-06 0.725E-05 -.235E-02
   -.211E+01 0.222E+01 0.742E+01   0.224E+01 -.241E+01 -.832E+01   -.116E+00 0.181E+00 0.889E+00   0.991E-05 0.584E-05 -.529E-03
   -.975E-02 0.406E-01 0.122E+03   -.346E-02 -.216E-02 -.122E+03   -.118E-02 -.222E-01 -.836E+00   -.385E-05 -.425E-05 -.388E-03
   0.114E+00 -.679E-02 0.564E+02   -.957E-01 0.313E-01 -.564E+02   -.864E-02 -.125E-01 -.429E-02   -.534E-06 -.567E-05 -.235E-02
   0.130E+01 -.480E+01 0.522E+01   -.114E+01 0.509E+01 -.641E+01   -.185E+00 -.291E+00 0.120E+01   0.668E-05 0.113E-05 -.675E-03
   -.360E-01 -.231E-01 0.899E+02   0.174E-01 -.100E-01 -.898E+02   0.240E-01 -.546E-02 -.422E-01   -.636E-05 0.864E-05 -.182E-02
   -.109E-01 -.113E-01 0.229E+02   0.587E-02 0.519E-01 -.230E+02   0.111E-01 -.679E-01 0.114E+00   -.658E-05 0.707E-05 -.187E-02
   -.715E-01 -.203E-02 0.899E+02   0.700E-01 0.895E-02 -.898E+02   0.241E-01 -.638E-02 -.480E-01   0.602E-05 -.150E-04 -.182E-02
   -.823E+00 0.246E-01 0.227E+02   0.750E+00 -.824E-02 -.229E+02   0.808E-01 -.143E-02 0.150E+00   0.277E-05 -.124E-04 -.188E-02
   -.645E-02 0.838E-02 0.899E+02   -.686E-01 0.605E-03 -.898E+02   0.155E-01 -.111E-01 -.101E+00   0.150E-05 0.721E-05 -.182E-02
   0.420E+00 -.193E+00 0.242E+02   -.382E+00 0.144E+00 -.242E+02   -.666E-01 0.437E-01 0.873E-01   -.826E-05 -.151E-05 -.190E-02
   0.120E-01 0.990E-03 0.899E+02   0.407E-02 0.807E-01 -.899E+02   0.922E-02 -.393E-01 -.412E-01   -.116E-04 -.164E-05 -.182E-02
   0.377E+00 0.437E-01 0.240E+02   -.391E+00 0.168E-01 -.241E+02   0.419E-01 -.285E-01 0.150E+00   -.601E-05 0.109E-04 -.188E-02
   -.815E-01 -.541E-01 0.898E+02   0.269E-01 0.516E-01 -.897E+02   0.327E-01 0.223E-02 -.806E-01   -.846E-05 -.996E-05 -.182E-02
   0.120E+01 -.160E+00 0.227E+02   -.114E+01 0.108E+00 -.228E+02   -.682E-01 0.555E-01 0.148E+00   -.132E-05 -.346E-05 -.186E-02
   -.144E-01 0.859E-01 0.899E+02   0.391E-01 -.946E-01 -.899E+02   -.522E-02 -.330E-01 -.506E-01   0.851E-06 0.216E-06 -.183E-02
   -.203E+00 0.831E+00 0.232E+02   0.243E+00 -.808E+00 -.234E+02   -.307E-01 -.416E-01 0.190E+00   0.116E-04 -.466E-05 -.188E-02
   0.348E-01 -.722E-02 0.899E+02   -.255E-01 0.276E-01 -.898E+02   -.322E-01 -.411E-02 -.107E+00   0.178E-04 0.737E-06 -.182E-02
   -.338E+00 -.267E-01 0.243E+02   0.368E+00 0.554E-02 -.243E+02   -.592E-01 0.307E-01 0.957E-01   0.123E-04 0.172E-05 -.188E-02
   0.126E+00 -.241E-01 0.899E+02   -.950E-01 -.409E-02 -.898E+02   -.234E-01 -.135E-02 -.107E-01   0.260E-05 -.112E-05 -.182E-02
   -.381E+00 -.626E-01 0.237E+02   0.379E+00 0.788E-01 -.239E+02   0.402E-04 -.442E-01 0.176E+00   -.162E-05 -.218E-06 -.186E-02
   0.120E-01 0.933E-01 0.899E+02   0.283E-01 -.879E-01 -.898E+02   0.971E-02 -.212E-02 -.290E-01   -.222E-05 0.109E-04 -.182E-02
   -.204E+00 -.442E+00 0.230E+02   0.139E+00 0.408E+00 -.232E+02   0.865E-01 0.307E-01 0.179E+00   -.331E-05 0.268E-05 -.185E-02
   0.190E+02 0.415E+02 -.266E+03   -.305E+02 -.681E+02 0.241E+03   0.115E+02 0.266E+02 0.250E+02   -.249E-04 -.309E-04 0.173E-02
   0.971E+01 0.112E+02 -.411E+03   -.227E+02 -.372E+02 0.441E+03   0.130E+02 0.260E+02 -.302E+02   -.625E-04 -.116E-04 0.243E-02
   0.103E+01 0.876E+01 -.413E+03   -.137E+02 -.315E+02 0.447E+03   0.126E+02 0.227E+02 -.335E+02   -.752E-04 -.569E-04 0.238E-02
   0.327E+02 0.426E+02 -.254E+03   -.506E+02 -.703E+02 0.234E+03   0.179E+02 0.277E+02 0.200E+02   0.170E-04 0.237E-04 0.148E-02
   -.195E+02 -.176E+00 -.270E+03   0.514E+02 -.200E+02 0.260E+03   -.319E+02 0.202E+02 0.101E+02   0.296E-03 -.843E-05 0.132E-02
   -.559E+01 0.613E+02 -.262E+03   -.537E+01 -.812E+02 0.230E+03   0.109E+02 0.200E+02 0.313E+02   -.129E-03 0.486E-05 0.164E-02
   0.359E+02 -.462E+02 -.873E+02   -.406E+02 0.518E+02 0.902E+02   0.475E+01 -.560E+01 -.293E+01   -.112E-04 0.979E-05 0.368E-03
   -.561E+02 -.260E+01 -.973E+02   0.632E+02 0.262E+01 0.101E+03   -.710E+01 -.216E-01 -.372E+01   0.947E-05 -.367E-05 0.390E-03
   -.407E+02 -.671E+02 -.678E+02   0.451E+02 0.740E+02 0.682E+02   -.431E+01 -.687E+01 -.411E+00   0.481E-05 0.109E-04 0.398E-03
   0.150E+02 0.693E+01 0.371E+02   -.166E+02 -.776E+01 -.441E+02   0.157E+01 0.817E+00 0.695E+01   -.621E-05 0.212E-05 0.238E-03
   -.406E+02 -.745E+02 -.543E+02   0.443E+02 0.816E+02 0.538E+02   -.374E+01 -.713E+01 0.491E+00   -.154E-04 -.981E-05 0.373E-03
   0.859E+01 0.217E+02 0.343E+02   -.956E+01 -.238E+02 -.411E+02   0.968E+00 0.211E+01 0.675E+01   -.666E-05 0.140E-05 0.234E-03
   0.245E+02 -.578E+02 -.767E+02   -.277E+02 0.648E+02 0.786E+02   0.327E+01 -.699E+01 -.191E+01   0.107E-04 0.119E-04 0.306E-03
   -.547E+02 0.460E+01 -.916E+02   0.616E+02 -.558E+01 0.952E+02   -.695E+01 0.976E+00 -.360E+01   0.160E-04 0.223E-05 0.349E-03
   0.601E+01 -.691E+02 -.918E+02   -.621E+01 0.763E+02 0.953E+02   0.228E+00 -.718E+01 -.356E+01   0.251E-04 0.495E-04 0.331E-03
   0.737E+02 0.286E+02 -.316E+02   -.805E+02 -.312E+02 0.304E+02   0.678E+01 0.265E+01 0.116E+01   -.133E-04 -.179E-04 0.194E-03
   0.259E+02 -.443E+02 -.772E+02   -.297E+02 0.505E+02 0.794E+02   0.382E+01 -.620E+01 -.219E+01   -.274E-04 0.287E-04 0.355E-03
   -.568E+02 0.215E+02 -.120E+03   0.624E+02 -.234E+02 0.126E+03   -.564E+01 0.185E+01 -.561E+01   0.193E-04 -.718E-05 0.433E-03
 -----------------------------------------------------------------------------------------------
   -.273E+02 -.112E+03 -.133E+02   -.213E-13 0.178E-13 -.327E-12   0.272E+02 0.112E+03 0.133E+02   0.264E-04 -.246E-05 -.488E-01
 
 
 POSITION                                       TOTAL-FORCE (eV/Angst)
 -----------------------------------------------------------------------------------
      0.00000      0.00000      0.00000         0.016400     -0.022439      0.009889
      4.76868      8.27157      5.15128         0.002510     -0.021995     -0.007694
      9.53841      0.00355     10.72868         0.013527     -0.021471     -0.012542
     -1.59263      2.75851      0.00000        -0.020641     -0.009318     -0.013501
      7.96391      2.75263      5.13440        -0.006850     -0.000718     -0.004575
      7.93644      2.74674     10.10316        -0.025916     -0.009682      0.010119
     -3.18525      5.51702      0.00000         0.006857      0.034787     -0.022095
      6.36723      5.49835      5.12923        -0.013675      0.014802     -0.003642
     -3.19488      5.53481     10.19889         0.003022      0.032084      0.016920
      3.18525      0.00000      0.00000        -0.025609     -0.012588     -0.026791
     -1.58797      8.27163      5.12404        -0.000582     -0.007229      0.002666
     -1.64408      8.25373     10.04390        -0.033613     -0.006335      0.010521
      1.59263      2.75851      0.00000        -0.000295      0.007751     -0.014802
      1.58980      2.75710      5.13881         0.011844      0.004561     -0.005986
      1.52184      2.75603     10.23984         0.004632      0.017739      0.016906
     -0.00000      5.51702      0.00000         0.001175     -0.006612     -0.002068
     -0.00058      5.50880      5.15877        -0.000393      0.012770      0.003088
     -0.09224      5.49867     10.76160         0.009227     -0.014833     -0.009609
      6.37050      0.00000      0.00000         0.004392      0.019581     -0.025468
      1.59509      8.26240      5.12986        -0.007576     -0.007762      0.004196
      1.58629      8.23016     10.21051         0.009986      0.028768      0.006109
      4.77788      2.75851      0.00000         0.013698     -0.020339      0.003926
      4.77336      2.75485      5.15895        -0.012986      0.003974      0.004040
      4.77981      2.63850     10.53241         0.016405     -0.015075     -0.012738
      3.18525      5.51702      0.00000        -0.014346      0.016369     -0.036525
      3.18943      5.50957      5.16517         0.009598      0.012128      0.004014
      3.20686      5.50225     10.29750        -0.026669      0.006242      0.015130
      0.00000      1.83901      2.60418         0.005473     -0.038390      0.009835
      0.01179      1.79794      7.69099         0.006090     -0.027228      0.003125
     -1.59263      4.59751      2.60418         0.022603      0.000662      0.010716
     -1.57339      4.61640      7.68878         0.007578      0.015018      0.000558
     -3.18525      7.35602      2.60418        -0.059435     -0.001972     -0.038315
     -3.20982      7.33361      7.61516        -0.029293     -0.004541      0.010663
      3.18525      1.83901      2.60418         0.025308      0.042546      0.017173
      3.18404      1.86106      7.67617         0.028746      0.032244      0.000655
      1.59263      4.59751      2.60418        -0.021848     -0.000156      0.000953
      1.57637      4.60835      7.72387        -0.002376      0.003821     -0.004292
      0.00000      7.35602      2.60418         0.019482     -0.041504      0.020848
      0.01028      7.32165      7.66901         0.009640     -0.018256     -0.003795
      6.37050      1.83901      2.60418        -0.022771      0.016375     -0.032009
      6.34240      1.81336      7.65370        -0.029262      0.009712      0.008748
      4.77788      4.59751      2.60418         0.007170     -0.029408      0.038486
      4.77419      4.55055      7.73954        -0.001337     -0.027946     -0.018996
      3.18525      7.35602      2.60418         0.050002      0.003457      0.023244
      3.21354      7.34686      7.73356         0.022054     -0.003358     -0.005226
      4.61874      8.26399     12.92628        -0.009285     -0.005398      0.014473
     -2.03629      8.02649     13.42856         0.001276      0.008662      0.036141
      7.37109      2.04609     13.39355         0.005611      0.000833      0.031095
      4.61001      2.66197     12.72069         0.001598     -0.013095      0.017024
      3.17699      5.08298     12.60126         0.042154      0.014480      0.016486
     -0.48909      5.71228     12.93202        -0.016114      0.006052      0.001952
      8.82254      0.69942     13.30522        -0.004735     -0.003563     -0.005797
      0.70799      0.01396     13.39536         0.000569     -0.006452     -0.010805
      3.26305      0.58351     13.46087        -0.003395      0.004667     -0.004084
     -2.23938      7.93466     12.44966        -0.011743     -0.006625     -0.027940
      7.82695      2.91319     13.31294         0.000152      0.001407     -0.006176
      7.24908      1.77537     12.43217        -0.006457     -0.009636     -0.028975
      4.22565      3.53648     12.97342         0.009857      0.009430      0.003331
      5.48215      2.56591     13.17829         0.010070     -0.005062     -0.009303
      3.11899      5.96123     13.04239         0.029709      0.039301      0.003228
      2.24460      4.75124     12.45560        -0.019050     -0.000095      0.034502
     -0.97287      6.52970     13.23736        -0.009818      0.000347     -0.009695
      0.18294      5.51014     13.61193         0.007656     -0.001489     -0.007319
 -----------------------------------------------------------------------------------
    total drift:                               -0.003120     -0.008584     -0.022868


--------------------------------------------------------------------------------------------------------



  FREE ENERGIE OF THE ION-ELECTRON SYSTEM (eV)
  ---------------------------------------------------
  free  energy   TOTEN  =       -67.59554158 eV

  energy  without entropy=      -67.59554158  energy(sigma->0) =      -67.59554158
 


--------------------------------------------------------------------------------------------------------


    POTLOK:  cpu time    5.0852: real time    5.0886


--------------------------------------------------------------------------------------------------------


 stress matrix after NEB project (eV)
     -5.93147     -1.11536      0.16624
     -1.11536     -8.57207      0.38685
      0.16624      0.38685      0.71785
  FORCES: max atom, RMS     0.049372    0.021730
  FORCE total and by dimension    0.172479    0.042154
  Stress total and by dimension   10.583980    8.572071
     LOOP+:  cpu time  216.7522: real time  218.0898
 vacuum level on the upper side and lower side of the slab         2.107         3.256
    4ORBIT:  cpu time    0.0000: real time    0.0000
 BZINTS: Fermi energy: -0.555641;138.000000 electrons
         Band energy:-883.286318;  BLOECHL correction: -0.099105

 total amount of memory used by VASP MPI-rank0    62220. kBytes
=======================================================================

   base      :      30000. kBytes
   nonlr-proj:       6317. kBytes
   fftplans  :       6459. kBytes
   grid      :      11407. kBytes
   one-center:         24. kBytes
   wavefun   :       8013. kBytes
 
  
  
 General timing and accounting informations for this job:
 ========================================================
  
                  Total CPU time used (sec):      262.077
                            User time (sec):      254.104
                          System time (sec):        7.972
                         Elapsed time (sec):      272.896
  
                   Maximum memory used (kb):      266208.
                   Average memory used (kb):           0.
  
                          Minor page faults:       204958
                          Major page faults:            0
                 Voluntary context switches:        71898
