Mg_slab_in_a_box                        
           1
     9.555753    0.000000    0.000000
    -4.777876    8.275525    0.000000
     0.000000    0.000000   32.625095
   Mg   O    H 
  45   6  12
Direct configuration=     1
   0.00000000  0.00000000  0.00000000
   0.99879907  0.99952194  0.15789323
   0.99839971  0.00042915  0.32884739
   0.00000001  0.33333336  0.00000000
   0.99972697  0.33262361  0.15737588
   0.99649590  0.33191082  0.30967452
   0.00000002  0.66666672  0.00000000
   0.99852997  0.66441120  0.15721736
   0.00006717  0.66881693  0.31260879
   0.33333334  0.00000000  0.00000000
   0.33358536  0.99952956  0.15705809
   0.32663229  0.99736694  0.30785825
   0.33333335  0.33333336  0.00000000
   0.33295254  0.33316262  0.15751099
   0.32577605  0.33303423  0.31386404
   0.33333336  0.66666672  0.00000000
   0.33277647  0.66567423  0.15812265
   0.32257205  0.66444969  0.32985659
   0.66666668  0.00000000  0.00000000
   0.66613155  0.99841463  0.15723671
   0.66326260  0.99451803  0.31296505
   0.66666668  0.33333336  0.00000000
   0.66597249  0.33289112  0.15812819
   0.65961814  0.31883170  0.32283165
   0.66666670  0.66666672  0.00000000
   0.66665389  0.66576686  0.15831895
   0.66803662  0.66488289  0.31563138
   0.11111113  0.22222222  0.07982145
   0.10986403  0.21725952  0.23573836
   0.11111114  0.55555561  0.07982145
   0.11426501  0.55783749  0.23567065
   0.11111116  0.88888894  0.07982145
   0.10718633  0.88618101  0.23341428
   0.44444450  0.22222222  0.07982145
   0.44564963  0.22488687  0.23528415
   0.44444450  0.55555561  0.07982145
   0.44339791  0.55686497  0.23674641
   0.44444451  0.88888894  0.07982145
   0.44344326  0.88473538  0.23506484
   0.77777779  0.22222222  0.07982145
   0.77328747  0.21912291  0.23459539
   0.77777781  0.55555561  0.07982145
   0.77455445  0.54988036  0.23722663
   0.77777784  0.88888894  0.07982145
   0.78018509  0.88778174  0.23704332
   0.98264917  0.99860559  0.39620672
   0.27185820  0.96990711  0.41160219
   0.89499995  0.24724609  0.41052903
   0.64326721  0.32166750  0.38990518
   0.63957729  0.61421793  0.38624437
   0.29394809  0.69026140  0.39638273
   0.96552860  0.08451683  0.40782162
   0.07493401  0.00168638  0.41058461
   0.37672962  0.07051019  0.41259258
   0.24505689  0.95881081  0.38159752
   0.99509523  0.35202443  0.40805820
   0.86587512  0.21453205  0.38106160
   0.65588137  0.42734219  0.39765150
   0.72873147  0.31005971  0.40393122
   0.68657187  0.72034460  0.39976562
   0.52196125  0.57413179  0.38177960
   0.29270829  0.78903722  0.40574167
   0.35206243  0.66583594  0.41722264
