  63  63   0   0
  0.4095168E+02  0.9555753E-09  0.9555753E-09  0.3262510E-08  0.5000000E-15
  1.000000000000000E-004
  CAR 
 Mg_slab_in_a_box                        
      4.09813136    -25.88050949  301     -0.62543997      1.00000000
    -25.881  0.0000E+00  0.0000E+00
    -25.781  0.0000E+00  0.0000E+00
    -25.681  0.0000E+00  0.0000E+00
    -25.581  0.0000E+00  0.0000E+00
    -25.481  0.0000E+00  0.0000E+00
    -25.381  0.0000E+00  0.0000E+00
    -25.281  0.0000E+00  0.0000E+00
    -25.181  0.0000E+00  0.0000E+00
    -25.081  0.0000E+00  0.0000E+00
    -24.981  0.0000E+00  0.0000E+00
    -24.881  0.0000E+00  0.0000E+00
    -24.781  0.0000E+00  0.0000E+00
    -24.681  0.0000E+00  0.0000E+00
    -24.581  0.0000E+00  0.0000E+00
    -24.482  0.0000E+00  0.0000E+00
    -24.382  0.0000E+00  0.0000E+00
    -24.282  0.0000E+00  0.0000E+00
    -24.182  0.0000E+00  0.0000E+00
    -24.082  0.0000E+00  0.0000E+00
    -23.982  0.0000E+00  0.0000E+00
    -23.882  0.0000E+00  0.0000E+00
    -23.782  0.0000E+00  0.4000E+01
    -23.682  0.0000E+00  0.6000E+01
    -23.582  0.0000E+00  0.6000E+01
    -23.482  0.0000E+00  0.6000E+01
    -23.382  0.0000E+00  0.8000E+01
    -23.282  0.0000E+00  0.8000E+01
    -23.182  0.0000E+00  0.8000E+01
    -23.083  0.0000E+00  0.1000E+02
    -22.983  0.0000E+00  0.1000E+02
    -22.883  0.0000E+00  0.1000E+02
    -22.783  0.0000E+00  0.1000E+02
    -22.683  0.0000E+00  0.1000E+02
    -22.583  0.0000E+00  0.1000E+02
    -22.483  0.0000E+00  0.1000E+02
    -22.383  0.0000E+00  0.1000E+02
    -22.283  0.0000E+00  0.1000E+02
    -22.183  0.0000E+00  0.1000E+02
    -22.083  0.0000E+00  0.1000E+02
    -21.983  0.0000E+00  0.1000E+02
    -21.883  0.0000E+00  0.1000E+02
    -21.783  0.0000E+00  0.1000E+02
    -21.683  0.0000E+00  0.1000E+02
    -21.584  0.0000E+00  0.1000E+02
    -21.484  0.0000E+00  0.1000E+02
    -21.384  0.0000E+00  0.1200E+02
    -21.284  0.0000E+00  0.1200E+02
    -21.184  0.0000E+00  0.1200E+02
    -21.084  0.0000E+00  0.1200E+02
    -20.984  0.0000E+00  0.1200E+02
    -20.884  0.0000E+00  0.1200E+02
    -20.784  0.0000E+00  0.1200E+02
    -20.684  0.0000E+00  0.1200E+02
    -20.584  0.0000E+00  0.1200E+02
    -20.484  0.0000E+00  0.1200E+02
    -20.384  0.0000E+00  0.1200E+02
    -20.284  0.0000E+00  0.1200E+02
    -20.185  0.0000E+00  0.1200E+02
    -20.085  0.0000E+00  0.1200E+02
    -19.985  0.0000E+00  0.1200E+02
    -19.885  0.0000E+00  0.1200E+02
    -19.785  0.0000E+00  0.1200E+02
    -19.685  0.0000E+00  0.1200E+02
    -19.585  0.0000E+00  0.1200E+02
    -19.485  0.0000E+00  0.1200E+02
    -19.385  0.0000E+00  0.1200E+02
    -19.285  0.0000E+00  0.1200E+02
    -19.185  0.0000E+00  0.1200E+02
    -19.085  0.0000E+00  0.1200E+02
    -18.985  0.0000E+00  0.1200E+02
    -18.885  0.0000E+00  0.1200E+02
    -18.786  0.0000E+00  0.1200E+02
    -18.686  0.0000E+00  0.1200E+02
    -18.586  0.0000E+00  0.1200E+02
    -18.486  0.0000E+00  0.1200E+02
    -18.386  0.0000E+00  0.1200E+02
    -18.286  0.0000E+00  0.1200E+02
    -18.186  0.0000E+00  0.1200E+02
    -18.086  0.0000E+00  0.1200E+02
    -17.986  0.0000E+00  0.1200E+02
    -17.886  0.0000E+00  0.1200E+02
    -17.786  0.0000E+00  0.1200E+02
    -17.686  0.0000E+00  0.1200E+02
    -17.586  0.0000E+00  0.1200E+02
    -17.486  0.0000E+00  0.1200E+02
    -17.387  0.0000E+00  0.1200E+02
    -17.287  0.0000E+00  0.1200E+02
    -17.187  0.0000E+00  0.1200E+02
    -17.087  0.0000E+00  0.1200E+02
    -16.987  0.0000E+00  0.1200E+02
    -16.887  0.0000E+00  0.1200E+02
    -16.787  0.0000E+00  0.1200E+02
    -16.687  0.0000E+00  0.1200E+02
    -16.587  0.0000E+00  0.1200E+02
    -16.487  0.0000E+00  0.1200E+02
    -16.387  0.0000E+00  0.1200E+02
    -16.287  0.0000E+00  0.1200E+02
    -16.187  0.0000E+00  0.1200E+02
    -16.087  0.0000E+00  0.1200E+02
    -15.988  0.0000E+00  0.1200E+02
    -15.888  0.0000E+00  0.1200E+02
    -15.788  0.0000E+00  0.1200E+02
    -15.688  0.0000E+00  0.1200E+02
    -15.588  0.0000E+00  0.1200E+02
    -15.488  0.0000E+00  0.1200E+02
    -15.388  0.0000E+00  0.1200E+02
    -15.288  0.0000E+00  0.1200E+02
    -15.188  0.0000E+00  0.1200E+02
    -15.088  0.0000E+00  0.1200E+02
    -14.988  0.0000E+00  0.1200E+02
    -14.888  0.0000E+00  0.1200E+02
    -14.788  0.0000E+00  0.1200E+02
    -14.688  0.0000E+00  0.1200E+02
    -14.589  0.0000E+00  0.1200E+02
    -14.489  0.0000E+00  0.1200E+02
    -14.389  0.0000E+00  0.1200E+02
    -14.289  0.0000E+00  0.1200E+02
    -14.189  0.0000E+00  0.1200E+02
    -14.089  0.0000E+00  0.1200E+02
    -13.989  0.0000E+00  0.1200E+02
    -13.889  0.0000E+00  0.1200E+02
    -13.789  0.0000E+00  0.1200E+02
    -13.689  0.0000E+00  0.1200E+02
    -13.589  0.0000E+00  0.1200E+02
    -13.489  0.0000E+00  0.1200E+02
    -13.389  0.0000E+00  0.1200E+02
    -13.289  0.0000E+00  0.1200E+02
    -13.190  0.0000E+00  0.1200E+02
    -13.090  0.0000E+00  0.1200E+02
    -12.990  0.0000E+00  0.1200E+02
    -12.890  0.0000E+00  0.1200E+02
    -12.790  0.0000E+00  0.1200E+02
    -12.690  0.0000E+00  0.1200E+02
    -12.590  0.0000E+00  0.1200E+02
    -12.490  0.0000E+00  0.1200E+02
    -12.390  0.0000E+00  0.1200E+02
    -12.290  0.0000E+00  0.1200E+02
    -12.190  0.0000E+00  0.1200E+02
    -12.090  0.0000E+00  0.1200E+02
    -11.990  0.0000E+00  0.1200E+02
    -11.890  0.0000E+00  0.1200E+02
    -11.791  0.0000E+00  0.1800E+02
    -11.691  0.0000E+00  0.1800E+02
    -11.591  0.0000E+00  0.1800E+02
    -11.491  0.0000E+00  0.1800E+02
    -11.391  0.0000E+00  0.1800E+02
    -11.291  0.0000E+00  0.1800E+02
    -11.191  0.0000E+00  0.1800E+02
    -11.091  0.0000E+00  0.2000E+02
    -10.991  0.0000E+00  0.2000E+02
    -10.891  0.0000E+00  0.2200E+02
    -10.791  0.0000E+00  0.2200E+02
    -10.691  0.0000E+00  0.2200E+02
    -10.591  0.0000E+00  0.2200E+02
    -10.491  0.0000E+00  0.2200E+02
    -10.392  0.0000E+00  0.2200E+02
    -10.292  0.0000E+00  0.2200E+02
    -10.192  0.0000E+00  0.2200E+02
    -10.092  0.0000E+00  0.2200E+02
     -9.992  0.0000E+00  0.2200E+02
     -9.892  0.0000E+00  0.2200E+02
     -9.792  0.0000E+00  0.2200E+02
     -9.692  0.0000E+00  0.2200E+02
     -9.592  0.0000E+00  0.2200E+02
     -9.492  0.0000E+00  0.2200E+02
     -9.392  0.0000E+00  0.2200E+02
     -9.292  0.0000E+00  0.2200E+02
     -9.192  0.0000E+00  0.2200E+02
     -9.092  0.0000E+00  0.2400E+02
     -8.993  0.0000E+00  0.2400E+02
     -8.893  0.0000E+00  0.2400E+02
     -8.793  0.0000E+00  0.2400E+02
     -8.693  0.0000E+00  0.2600E+02
     -8.593  0.0000E+00  0.2800E+02
     -8.493  0.0000E+00  0.2800E+02
     -8.393  0.0000E+00  0.3000E+02
     -8.293  0.0000E+00  0.3000E+02
     -8.193  0.0000E+00  0.3000E+02
     -8.093  0.0000E+00  0.3000E+02
     -7.993  0.0000E+00  0.3000E+02
     -7.893  0.0000E+00  0.3200E+02
     -7.793  0.0000E+00  0.3200E+02
     -7.693  0.0000E+00  0.3200E+02
     -7.594  0.0000E+00  0.3200E+02
     -7.494  0.0000E+00  0.3400E+02
     -7.394  0.6266E+00  0.3401E+02
     -7.294  0.3415E+01  0.3421E+02
     -7.194  0.1618E+02  0.3472E+02
     -7.094  0.5921E+01  0.3583E+02
     -6.994  0.1584E+02  0.3616E+02
     -6.894  0.8576E+01  0.3762E+02
     -6.794  0.1584E+02  0.3852E+02
     -6.694  0.5398E+01  0.3993E+02
     -6.594  0.7290E+01  0.4023E+02
     -6.494  0.9650E+01  0.4238E+02
     -6.394  0.8887E+01  0.4367E+02
     -6.294  0.1838E+02  0.4576E+02
     -6.195  0.4010E+01  0.4743E+02
     -6.095  0.3978E+01  0.4777E+02
     -5.995  0.1352E+02  0.4857E+02
     -5.895  0.2307E+02  0.5048E+02
     -5.795  0.2607E+02  0.5274E+02
     -5.695  0.4032E+02  0.5649E+02
     -5.595  0.3942E+02  0.5788E+02
     -5.495  0.3163E+02  0.5989E+02
     -5.395  0.5607E+01  0.6155E+02
     -5.295  0.1769E+02  0.6226E+02
     -5.195  0.5195E+01  0.6392E+02
     -5.095  0.2815E+02  0.6502E+02
     -4.995  0.8553E+01  0.6671E+02
     -4.895  0.6025E+01  0.6745E+02
     -4.796  0.2737E+01  0.6789E+02
     -4.696  0.8898E+01  0.6920E+02
     -4.596  0.6561E+01  0.6996E+02
     -4.496  0.7363E+01  0.7056E+02
     -4.396  0.3025E+02  0.7270E+02
     -4.296  0.2015E+02  0.7475E+02
     -4.196  0.1615E+02  0.7613E+02
     -4.096  0.1701E+02  0.7793E+02
     -3.996  0.1682E+02  0.7911E+02
     -3.896  0.4016E+01  0.8038E+02
     -3.796  0.1581E+02  0.8123E+02
     -3.696  0.2012E+02  0.8326E+02
     -3.596  0.7851E+01  0.8475E+02
     -3.496  0.1348E+02  0.8643E+02
     -3.397  0.7386E+01  0.8730E+02
     -3.297  0.6798E+01  0.8800E+02
     -3.197  0.6903E+01  0.8868E+02
     -3.097  0.7009E+01  0.8938E+02
     -2.997  0.1832E+02  0.9167E+02
     -2.897  0.1481E+02  0.9360E+02
     -2.797  0.2780E+02  0.9621E+02
     -2.697  0.3095E+02  0.9903E+02
     -2.597  0.1234E+02  0.1010E+03
     -2.497  0.1914E+02  0.1025E+03
     -2.397  0.0000E+00  0.1040E+03
     -2.297  0.1416E+02  0.1065E+03
     -2.197  0.2400E+02  0.1078E+03
     -2.097  0.4358E+01  0.1093E+03
     -1.998  0.2782E+01  0.1096E+03
     -1.898  0.6972E+01  0.1114E+03
     -1.798  0.2053E+02  0.1128E+03
     -1.698  0.3046E+02  0.1155E+03
     -1.598  0.3087E+02  0.1185E+03
     -1.498  0.2647E+02  0.1214E+03
     -1.398  0.1940E+02  0.1237E+03
     -1.298  0.1637E+02  0.1255E+03
     -1.198  0.1424E+02  0.1271E+03
     -1.098  0.1179E+02  0.1284E+03
     -0.998  0.2165E+02  0.1297E+03
     -0.898  0.1926E+02  0.1321E+03
     -0.798  0.2230E+02  0.1349E+03
     -0.698  0.9545E+01  0.1368E+03
     -0.599  0.2726E+02  0.1392E+03
     -0.499  0.3158E+02  0.1422E+03
     -0.399  0.2305E+02  0.1439E+03
     -0.299  0.1261E+02  0.1454E+03
     -0.199  0.8615E+01  0.1470E+03
     -0.099  0.1930E+02  0.1483E+03
      0.001  0.4263E+02  0.1498E+03
      0.101  0.2958E+02  0.1522E+03
      0.201  0.1336E+02  0.1558E+03
      0.301  0.4460E+02  0.1589E+03
      0.401  0.7929E+01  0.1601E+03
      0.501  0.1401E+02  0.1621E+03
      0.601  0.2059E+02  0.1654E+03
      0.701  0.2919E+02  0.1678E+03
      0.800  0.2681E+02  0.1700E+03
      0.900  0.3402E+02  0.1721E+03
      1.000  0.1467E+02  0.1751E+03
      1.100  0.1496E+02  0.1778E+03
      1.200  0.1449E+02  0.1801E+03
      1.300  0.3751E+02  0.1825E+03
      1.400  0.5071E+02  0.1862E+03
      1.500  0.3229E+02  0.1898E+03
      1.600  0.3256E+02  0.1945E+03
      1.700  0.4321E+02  0.1981E+03
      1.800  0.1515E+02  0.2011E+03
      1.900  0.3672E+01  0.2023E+03
      2.000  0.1180E+02  0.2030E+03
      2.100  0.0000E+00  0.2040E+03
      2.199  0.0000E+00  0.2040E+03
      2.299  0.0000E+00  0.2040E+03
      2.399  0.0000E+00  0.2040E+03
      2.499  0.0000E+00  0.2040E+03
      2.599  0.0000E+00  0.2040E+03
      2.699  0.0000E+00  0.2040E+03
      2.799  0.0000E+00  0.2040E+03
      2.899  0.0000E+00  0.2040E+03
      2.999  0.0000E+00  0.2040E+03
      3.099  0.0000E+00  0.2040E+03
      3.199  0.0000E+00  0.2040E+03
      3.299  0.0000E+00  0.2040E+03
      3.399  0.0000E+00  0.2040E+03
      3.499  0.0000E+00  0.2040E+03
      3.598  0.0000E+00  0.2040E+03
      3.698  0.0000E+00  0.2040E+03
      3.798  0.0000E+00  0.2040E+03
      3.898  0.0000E+00  0.2040E+03
      3.998  0.0000E+00  0.2040E+03
      4.098  0.0000E+00  0.2040E+03
