 vasp.5.4.4.18Apr17-6-g9f103f2a35 (build Jun 08 2018 12:06:12) complex          
  
 executed on             LinuxIFC date 2019.06.06  07:39:16
 running on   72 total cores
 distrk:  each k-point on   72 cores,    1 groups
 distr:  one band on NCORES_PER_BAND=  24 cores,    3 groups


--------------------------------------------------------------------------------------------------------


 INCAR:
 POTCAR:    PAW_PBE Mg 13Apr2007                  
 POTCAR:    PAW_PBE O 08Apr2002                   
 POTCAR:    PAW_PBE H 15Jun2001                   

 ----------------------------------------------------------------------------- 
|                                                                             |
|           W    W    AA    RRRRR   N    N  II  N    N   GGGG   !!!           |
|           W    W   A  A   R    R  NN   N  II  NN   N  G    G  !!!           |
|           W    W  A    A  R    R  N N  N  II  N N  N  G       !!!           |
|           W WW W  AAAAAA  RRRRR   N  N N  II  N  N N  G  GGG   !            |
|           WW  WW  A    A  R   R   N   NN  II  N   NN  G    G                |
|           W    W  A    A  R    R  N    N  II  N    N   GGGG   !!!           |
|                                                                             |
|      For optimal performance we recommend to set                            |
|        NCORE= 4 - approx SQRT( number of cores)                             |
|      NCORE specifies how many cores store one orbital (NPAR=cpu/NCORE).     |
|      This setting can  greatly improve the performance of VASP for DFT.     |
|      The default,   NCORE=1            might be grossly inefficient         |
|      on modern multi-core architectures or massively parallel machines.     |
|      Do your own testing !!!!                                               |
|      Unfortunately you need to use the default for GW and RPA calculations. |
|      (for HF NCORE is supported but not extensively tested yet)             |
|                                                                             |
 ----------------------------------------------------------------------------- 


 ----------------------------------------------------------------------------- 
|                                                                             |
|  ADVICE TO THIS USER RUNNING 'VASP/VAMP'   (HEAR YOUR MASTER'S VOICE ...):  |
|                                                                             |
|      You have switched on vdW-DFT.                                          |
|      This routine was written and supplied by Jiri Klimes.                  |
|      We recommed that you carefully read and cite the following             |
|      publication                                                            |
|      J. Klimes, D.R. Bowler, A. Michelides                                  |
|        J. Phys.: Cond Matt. 22 022201 (2010)                                |
|      J. Klimes, D.R. Bowler, A. Michelides                                  |
|        Phys. Rev. B. 83, 195131 (2011)                                      |
|      and references therein.                                                |
|                                                                             |
 ----------------------------------------------------------------------------- 

 POTCAR:    PAW_PBE Mg 13Apr2007                  
   VRHFIN =Mg: s2p0                                                             
   LEXCH  = PE                                                                  
   EATOM  =    23.0369 eV,    1.6932 Ry                                         
                                                                                
   TITEL  = PAW_PBE Mg 13Apr2007                                                
   LULTRA =        F    use ultrasoft PP ?                                      
   IUNSCR =        1    unscreen: 0-lin 1-nonlin 2-no                           
   RPACOR =    1.500    partial core radius                                     
   POMASS =   24.305; ZVAL   =    2.000    mass and valenz                      
   RCORE  =    2.000    outmost cutoff radius                                   
   RWIGS  =    2.880; RWIGS  =    1.524    wigner-seitz radius (au A)           
   ENMAX  =  200.000; ENMIN  =  100.000 eV                                      
   RCLOC  =    1.506    cutoff for local pot                                    
   LCOR   =        T    correct aug charges                                     
   LPAW   =        T    paw PP                                                  
   EAUG   =  454.734                                                            
   DEXC   =    0.000                                                            
   RMAX   =    2.045    core radius for proj-oper                               
   RAUG   =    1.300    factor for augmentation sphere                          
   RDEP   =    2.025    radius for radial grids                                 
   RDEPT  =    1.942    core radius for aug-charge                              
                                                                                
   Atomic configuration                                                         
    6 entries                                                                   
     n  l   j            E        occ.                                          
     1  0  0.50     -1259.6230   2.0000                                         
     2  0  0.50       -79.8442   2.0000                                         
     2  1  1.50       -46.6121   6.0000                                         
     3  0  0.50        -4.7055   2.0000                                         
     3  1  0.50        -1.3660   0.0000                                         
     3  2  1.50        -1.3606   0.0000                                         
   Description                                                                  
     l       E           TYP  RCUT    TYP  RCUT                                 
     0     -4.7054661     23  2.000                                             
     0     27.2116520     23  2.000                                             
     1      1.3605826     23  2.000                                             
     1     27.2116520     23  2.000                                             
     2     -1.3605826     23  2.000                                             
  local pseudopotential read in
  partial core-charges read in
  partial kinetic energy density read in
  atomic valenz-charges read in
  non local Contribution for L=           0  read in
    real space projection operators read in
  non local Contribution for L=           0  read in
    real space projection operators read in
  non local Contribution for L=           1  read in
    real space projection operators read in
  non local Contribution for L=           1  read in
    real space projection operators read in
  non local Contribution for L=           2  read in
    real space projection operators read in
    PAW grid and wavefunctions read in
 
   number of l-projection  operators is LMAX  =           5
   number of lm-projection operators is LMMAX =          13
 
 POTCAR:    PAW_PBE O 08Apr2002                   
   VRHFIN =O: s2p4                                                              
   LEXCH  = PE                                                                  
   EATOM  =   432.3788 eV,   31.7789 Ry                                         
                                                                                
   TITEL  = PAW_PBE O 08Apr2002                                                 
   LULTRA =        F    use ultrasoft PP ?                                      
   IUNSCR =        1    unscreen: 0-lin 1-nonlin 2-no                           
   RPACOR =    1.200    partial core radius                                     
   POMASS =   16.000; ZVAL   =    6.000    mass and valenz                      
   RCORE  =    1.520    outmost cutoff radius                                   
   RWIGS  =    1.550; RWIGS  =    0.820    wigner-seitz radius (au A)           
   ENMAX  =  400.000; ENMIN  =  300.000 eV                                      
   ICORE  =        2    local potential                                         
   LCOR   =        T    correct aug charges                                     
   LPAW   =        T    paw PP                                                  
   EAUG   =  605.392                                                            
   DEXC   =    0.000                                                            
   RMAX   =    1.553    core radius for proj-oper                               
   RAUG   =    1.300    factor for augmentation sphere                          
   RDEP   =    1.550    radius for radial grids                                 
   RDEPT  =    1.329    core radius for aug-charge                              
                                                                                
   Atomic configuration                                                         
    4 entries                                                                   
     n  l   j            E        occ.                                          
     1  0  0.50      -514.6923   2.0000                                         
     2  0  0.50       -23.9615   2.0000                                         
     2  1  0.50        -9.0305   4.0000                                         
     3  2  1.50        -9.5241   0.0000                                         
   Description                                                                  
     l       E           TYP  RCUT    TYP  RCUT                                 
     0    -23.9615318     23  1.200                                             
     0     -9.5240782     23  1.200                                             
     1     -9.0304911     23  1.520                                             
     1      8.1634956     23  1.520                                             
     2     -9.5240782      7  1.500                                             
  local pseudopotential read in
  partial core-charges read in
  partial kinetic energy density read in
  kinetic energy density of atom read in
  atomic valenz-charges read in
  non local Contribution for L=           0  read in
    real space projection operators read in
  non local Contribution for L=           0  read in
    real space projection operators read in
  non local Contribution for L=           1  read in
    real space projection operators read in
  non local Contribution for L=           1  read in
    real space projection operators read in
    PAW grid and wavefunctions read in
 
   number of l-projection  operators is LMAX  =           4
   number of lm-projection operators is LMMAX =           8
 
 POTCAR:    PAW_PBE H 15Jun2001                   
   VRHFIN =H: ultrasoft test                                                    
   LEXCH  = PE                                                                  
   EATOM  =    12.4884 eV,    0.9179 Ry                                         
                                                                                
   TITEL  = PAW_PBE H 15Jun2001                                                 
   LULTRA =        F    use ultrasoft PP ?                                      
   IUNSCR =        0    unscreen: 0-lin 1-nonlin 2-no                           
   RPACOR =    0.000    partial core radius                                     
   POMASS =    1.000; ZVAL   =    1.000    mass and valenz                      
   RCORE  =    1.100    outmost cutoff radius                                   
   RWIGS  =    0.700; RWIGS  =    0.370    wigner-seitz radius (au A)           
   ENMAX  =  250.000; ENMIN  =  200.000 eV                                      
   RCLOC  =    0.701    cutoff for local pot                                    
   LCOR   =        T    correct aug charges                                     
   LPAW   =        T    paw PP                                                  
   EAUG   =  400.000                                                            
   RMAX   =    1.123    core radius for proj-oper                               
   RAUG   =    1.200    factor for augmentation sphere                          
   RDEP   =    1.112    radius for radial grids                                 
   RDEPT  =    0.926    core radius for aug-charge                              
                                                                                
   Atomic configuration                                                         
    2 entries                                                                   
     n  l   j            E        occ.                                          
     1  0  0.50        -6.4927   1.0000                                         
     2  1  0.50        -3.4015   0.0000                                         
   Description                                                                  
     l       E           TYP  RCUT    TYP  RCUT                                 
     0     -6.4927494     23  1.100                                             
     0      6.8029130     23  1.100                                             
     1     -4.0817478     23  1.100                                             
  local pseudopotential read in
  atomic valenz-charges read in
  non local Contribution for L=           0  read in
    real space projection operators read in
  non local Contribution for L=           0  read in
    real space projection operators read in
  non local Contribution for L=           1  read in
    real space projection operators read in
    PAW grid and wavefunctions read in
 
   number of l-projection  operators is LMAX  =           3
   number of lm-projection operators is LMMAX =           5
 
 Optimization of the real space projectors (new method)

 maximal supplied QI-value         = 18.90
 optimisation between [QCUT,QGAM] = [ 11.53, 23.24] = [ 37.21,151.29] Ry 
 Optimized for a Real-space Cutoff    1.28 Angstroem

   l    n(q)    QCUT    max X(q) W(low)/X(q) W(high)/X(q)  e(spline) 
   0      9    11.527    28.265    0.62E-04    0.53E-04    0.73E-07
   0      9    11.527    10.429    0.52E-04    0.40E-04    0.58E-07
   1      8    11.527    13.073    0.98E-04    0.18E-03    0.86E-07
   1      8    11.527     9.625    0.79E-04    0.15E-03    0.74E-07
   2      8    11.527     4.652    0.22E-03    0.72E-04    0.47E-07
 Optimization of the real space projectors (new method)

 maximal supplied QI-value         = 24.76
 optimisation between [QCUT,QGAM] = [ 11.64, 23.27] = [ 37.91,151.63] Ry 
 Optimized for a Real-space Cutoff    1.14 Angstroem

   l    n(q)    QCUT    max X(q) W(low)/X(q) W(high)/X(q)  e(spline) 
   0      8    11.635    20.381    0.10E-03    0.33E-03    0.24E-06
   0      8    11.635    15.268    0.11E-03    0.35E-03    0.26E-06
   1      7    11.635     5.964    0.24E-03    0.31E-03    0.30E-06
   1      7    11.635     5.382    0.22E-03    0.25E-03    0.26E-06
 Optimization of the real space projectors (new method)

 maximal supplied QI-value         = 34.20
 optimisation between [QCUT,QGAM] = [ 11.63, 23.26] = [ 37.87,151.49] Ry 
 Optimized for a Real-space Cutoff    1.21 Angstroem

   l    n(q)    QCUT    max X(q) W(low)/X(q) W(high)/X(q)  e(spline) 
   0      8    11.629    19.460    0.17E-03    0.34E-03    0.21E-06
   0      8    11.629    12.209    0.16E-03    0.33E-03    0.21E-06
   1      8    11.629     4.655    0.18E-03    0.16E-03    0.26E-06

 ----------------------------------------------------------------------------- 
|                                                                             |
|  ADVICE TO THIS USER RUNNING 'VASP/VAMP'   (HEAR YOUR MASTER'S VOICE ...):  |
|                                                                             |
|      You enforced a specific xc-type in the INCAR file,                     |
|      a different type was found on the POTCAR file                          |
|          I HOPE YOU KNOW, WHAT YOU ARE  DOING                               |
|                                                                             |
 ----------------------------------------------------------------------------- 

  PAW_PBE Mg 13Apr2007                  :
 energy of atom  1       EATOM=  -23.0369
 kinetic energy error for atom=    0.0000 (will be added to EATOM!!)
  PAW_PBE O 08Apr2002                   :
 energy of atom  2       EATOM= -432.3788
 kinetic energy error for atom=    0.0208 (will be added to EATOM!!)
  PAW_PBE H 15Jun2001                   :
 energy of atom  3       EATOM=  -12.4884
 kinetic energy error for atom=    0.0014 (will be added to EATOM!!)
 
 
 POSCAR: Mg   O    H                             
  positions in direct lattice
  velocities in cartesian coordinates
 exchange correlation table for  LEXCH =       42
   RHO(1)=    0.500       N(1)  =     2000
   RHO(2)=  100.500       N(2)  =     4000

 VTST: version 3.2, (02/03/18)

 CHAIN: initializing optimizer
 
 OPT: Using VASP Dynamics algorithm
 CHAIN: Read ICHAIN            0
 
 POSCAR: Mg   O    H                             
  positions in direct lattice
  velocities in cartesian coordinates
 


--------------------------------------------------------------------------------------------------------


 ion  position               nearest neighbor table
   1  0.000  0.000  0.000-   7 3.19  25 3.19  19 3.19  10 3.19   4 3.19  13 3.19  44 3.19  32 3.19
                            28 3.19
   2  0.999  0.002  0.158-  33 3.08  28 3.14  29 3.14  44 3.15  32 3.16  26 3.16  14 3.17  20 3.18
                             8 3.18   5 3.18  11 3.20  45 3.21
   3  0.001  0.009  0.330-  46 2.15  15 3.11   9 3.22  21 3.22  27 3.23  12 3.24   6 3.30  45 3.49
                            29 3.53  33 3.63
   4  0.000  0.333  0.000-  22 3.19  13 3.19  19 3.19  16 3.19   1 3.19   7 3.19  40 3.19  30 3.19
                            28 3.19
   5  0.000  0.335  0.158-  30 3.12  40 3.13  28 3.14  29 3.15  41 3.16  31 3.17  14 3.18   2 3.18
                            17 3.19  23 3.19   8 3.19  20 3.20
   6  0.990  0.343  0.312-  31 3.07  41 3.08  21 3.09  29 3.15   9 3.16  15 3.18  24 3.19  18 3.29
                             3 3.30
   7  0.000  0.667  0.000-   1 3.19  10 3.19  25 3.19  16 3.19  22 3.19   4 3.19  42 3.19  32 3.19
                            30 3.19
   8  0.000  0.669  0.158-  32 3.13  33 3.13  42 3.14  30 3.15  26 3.16  31 3.17  17 3.18  23 3.18
                             2 3.18  11 3.19   5 3.19  43 3.23
   9  0.018  0.687  0.312-  18 3.02  33 3.06  43 3.10  31 3.10  12 3.10   6 3.16   3 3.22  27 3.38
                            24 3.40
  10  0.333  0.000  0.000-  16 3.19   7 3.19  19 3.19   1 3.19  22 3.19  13 3.19  32 3.19  34 3.19
                            38 3.19
  11  0.334  0.002  0.157-  34 3.11  38 3.13  32 3.13  33 3.13  17 3.17  20 3.18  14 3.18   8 3.19
                            23 3.19   2 3.20  39 3.20  35 3.21
  12  0.337  0.017  0.309-  35 2.99  39 3.06  33 3.07   9 3.10  15 3.11  18 3.20  21 3.22  24 3.23
                             3 3.24
  13  0.333  0.333  0.000-  22 3.19   4 3.19  10 3.19   1 3.19  25 3.19  16 3.19  28 3.19  36 3.19
                            34 3.19
  14  0.332  0.333  0.157-  28 3.11  36 3.12  37 3.13  34 3.13  35 3.14   2 3.17   5 3.18  11 3.18
                            23 3.19  29 3.20  17 3.21  26 3.22
  15  0.318  0.332  0.312-  61 1.94  29 3.03  12 3.11   3 3.11  35 3.13  37 3.18   6 3.18  27 3.29
                            24 3.34  18 3.37
  16  0.333  0.667  0.000-  10 3.19  19 3.19   7 3.19  25 3.19   4 3.19  13 3.19  38 3.19  30 3.19
                            36 3.19
  17  0.333  0.670  0.158-  37 3.10  31 3.12  38 3.12  30 3.14  39 3.15  36 3.16  11 3.17  20 3.17
                             8 3.18   5 3.19  14 3.21  26 3.22
  18  0.326  0.684  0.330-  61 1.92  51 2.14   9 3.02  12 3.20  27 3.24  21 3.27   6 3.29  15 3.37
                            39 3.47  31 3.53
  19  0.667  0.000  0.000-  25 3.19  16 3.19   1 3.19  10 3.19   4 3.19  22 3.19  38 3.19  44 3.19
                            40 3.19
  20  0.666  0.000  0.158-  38 3.14  40 3.14  41 3.14  44 3.14  17 3.17   2 3.18  11 3.18  39 3.18
                            26 3.18   5 3.20  23 3.21  45 3.24
  21  0.672  0.014  0.314-   6 3.09  41 3.10  45 3.11  39 3.14  27 3.16   3 3.22  12 3.22  24 3.25
                            18 3.27
  22  0.667  0.333  0.000-  13 3.19   4 3.19  10 3.19  25 3.19   7 3.19  19 3.19  34 3.19  42 3.19
                            40 3.19
  23  0.667  0.337  0.159-  41 3.09  35 3.10  42 3.15  34 3.16  26 3.17  40 3.17   8 3.18  14 3.19
                            11 3.19   5 3.19  43 3.20  20 3.21
  24  0.665  0.344  0.334-  50 2.11  49 2.28   6 3.19  12 3.23  21 3.25  27 3.25  15 3.34   9 3.40
                            43 3.55  35 3.65
  25  0.667  0.667  0.000-   1 3.19  19 3.19   7 3.19  16 3.19  22 3.19  13 3.19  36 3.19  42 3.19
                            44 3.19
  26  0.670  0.669  0.158-  37 3.08  44 3.13  42 3.14  36 3.16   8 3.16   2 3.16  23 3.17  20 3.18
                            43 3.22  17 3.22  45 3.22  14 3.22
  27  0.660  0.678  0.319-  61 1.96  50 2.02  45 3.14  21 3.16   3 3.23  18 3.24  24 3.25  43 3.27
                            37 3.29  15 3.29   9 3.38
  28  0.111  0.222  0.080-  14 3.11   5 3.14   2 3.14  44 3.19  32 3.19  40 3.19  34 3.19  36 3.19
                            30 3.19   1 3.19  13 3.19   4 3.19
  29  0.105  0.222  0.237-  15 3.03   2 3.14  33 3.15   5 3.15  45 3.15   6 3.15  31 3.17  41 3.18
                            14 3.20  35 3.23  37 3.25   3 3.53
  30  0.111  0.556  0.080-   5 3.12  17 3.14   8 3.15  32 3.19  42 3.19  38 3.19  40 3.19  36 3.19
                            28 3.19  16 3.19   7 3.19   4 3.19
  31  0.117  0.560  0.236-   6 3.07   9 3.10  17 3.12  39 3.12  37 3.16   8 3.17   5 3.17  29 3.17
                            43 3.23  33 3.24  41 3.24  18 3.53
  32  0.111  0.889  0.080-   8 3.13  11 3.13   2 3.16  28 3.19  34 3.19  44 3.19  30 3.19  42 3.19
                            38 3.19  10 3.19   1 3.19   7 3.19
  33  0.112  0.896  0.235-   9 3.06  12 3.07   2 3.08  11 3.13   8 3.13  45 3.14  29 3.15  39 3.22
                            43 3.22  35 3.23  31 3.24   3 3.63
  34  0.444  0.222  0.080-  11 3.11  14 3.13  23 3.16  38 3.19  40 3.19  32 3.19  42 3.19  28 3.19
                            36 3.19  22 3.19  10 3.19  13 3.19
  35  0.450  0.234  0.236-  12 2.99  23 3.10  43 3.11  37 3.12  15 3.13  14 3.14  41 3.15  11 3.21
                            33 3.23  29 3.23  39 3.29  24 3.65
  36  0.444  0.556  0.080-  14 3.12  17 3.16  26 3.16  42 3.19  38 3.19  44 3.19  30 3.19  28 3.19
                            34 3.19  25 3.19  13 3.19  16 3.19
  37  0.448  0.560  0.234-  26 3.08  17 3.10  35 3.12  14 3.13  39 3.15  31 3.16  45 3.17  43 3.17
                            15 3.18  29 3.25  27 3.29
  38  0.444  0.889  0.080-  17 3.12  11 3.13  20 3.14  40 3.19  34 3.19  44 3.19  36 3.19  30 3.19
                            32 3.19  19 3.19  16 3.19  10 3.19
  39  0.444  0.887  0.237-  12 3.06  31 3.12  21 3.14  37 3.15  17 3.15  20 3.18  41 3.19  45 3.20
                            11 3.20  33 3.22  35 3.29  18 3.47
  40  0.778  0.222  0.080-   5 3.13  20 3.14  23 3.17  38 3.19  34 3.19  44 3.19  28 3.19  30 3.19
                            42 3.19   4 3.19  19 3.19  22 3.19
  41  0.774  0.225  0.235-   6 3.08  23 3.09  21 3.10  20 3.14  35 3.15   5 3.16  43 3.16  29 3.18
                            39 3.19  45 3.23  31 3.24
  42  0.778  0.556  0.080-  26 3.14   8 3.14  23 3.15  36 3.19  44 3.19  30 3.19  32 3.19  34 3.19
                            40 3.19  25 3.19   7 3.19  22 3.19
  43  0.777  0.557  0.239-   9 3.10  35 3.11  41 3.16  45 3.17  37 3.17  23 3.20  26 3.22  33 3.22
                             8 3.23  31 3.23  27 3.27  24 3.55
  44  0.778  0.889  0.080-  26 3.13  20 3.14   2 3.15  28 3.19  40 3.19  42 3.19  32 3.19  38 3.19
                            36 3.19   1 3.19  19 3.19  25 3.19
  45  0.779  0.889  0.239-  21 3.11  27 3.14  33 3.14  29 3.15  37 3.17  43 3.17  39 3.20   2 3.21
                            26 3.22  41 3.23  20 3.24   3 3.49
  46  0.002  0.001  0.396-  53 0.98  52 0.99   3 2.15
  47  0.294  0.965  0.413-  54 0.99  55 1.00
  48  0.883  0.221  0.416-  56 0.98  57 1.00
  49  0.604  0.270  0.401-  59 0.99  58 0.99  24 2.28
  50  0.692  0.551  0.364-  60 0.98  27 2.02  24 2.11
  51  0.354  0.709  0.395-  63 0.98  62 1.00  18 2.14
  52  0.969  0.072  0.411-  46 0.99
  53  0.095  0.006  0.411-  46 0.98
  54  0.395  0.071  0.411-  47 0.99
  55  0.256  0.940  0.384-  47 1.00
  56  0.981  0.327  0.418-  48 0.98
  57  0.864  0.208  0.386-  48 1.00
  58  0.622  0.381  0.403-  49 0.99
  59  0.695  0.267  0.414-  49 0.99
  60  0.790  0.625  0.379-  50 0.98
  61  0.428  0.555  0.331-  18 1.92  15 1.94  27 1.96
  62  0.345  0.801  0.407-  51 1.00
  63  0.453  0.717  0.406-  51 0.98
 
  LATTYP: Found a hexagonal cell.
 ALAT       =     9.5557527542
 C/A-ratio  =     3.4141837076
  
  Lattice vectors:
  
 A1 = (   9.5557527542,   0.0000000000,   0.0000000000)
 A2 = (  -4.7778763771,   8.2755246374,   0.0000000000)
 A3 = (   0.0000000000,   0.0000000000,  32.6250953674)


Analysis of symmetry for initial positions (statically):
=====================================================================
 Subroutine PRICEL returns:
 Original cell was already a primitive cell.
 

 Routine SETGRP: Setting up the symmetry group for a 
 hexagonal supercell.


 Subroutine GETGRP returns: Found  1 space group operations
 (whereof  1 operations were pure point group operations)
 out of a pool of 24 trial point group operations.


The static configuration has the point symmetry C_1 .


Analysis of symmetry for dynamics (positions and initial velocities):
=====================================================================
 Subroutine PRICEL returns:
 Original cell was already a primitive cell.
 

 Routine SETGRP: Setting up the symmetry group for a 
 hexagonal supercell.


 Subroutine GETGRP returns: Found  1 space group operations
 (whereof  1 operations were pure point group operations)
 out of a pool of 24 trial point group operations.


The dynamic configuration has the point symmetry C_1 .


Analysis of constrained symmetry for selective dynamics:
=====================================================================
 Subroutine PRICEL returns:
 Original cell was already a primitive cell.
 

 Routine SETGRP: Setting up the symmetry group for a 
 hexagonal supercell.


 Subroutine GETGRP returns: Found  1 space group operations
 (whereof  1 operations were pure point group operations)
 out of a pool of 24 trial point group operations.


The constrained configuration has the point symmetry C_1 .


 Subroutine INISYM returns: Found  1 space group operations
 (whereof  1 operations are pure point group operations),
 and found     1 'primitive' translations

 
 
 KPOINTS: Auto                                    

Automatic generation of k-mesh.
Space group operators:
 irot       det(A)        alpha          n_x          n_y          n_z        tau_x        tau_y        tau_z
    1     1.000000     0.000000     1.000000     0.000000     0.000000     0.000000     0.000000     0.000000
 
 Subroutine IBZKPT returns following result:
 ===========================================
 
 Found      5 irreducible k-points:
 
 Following reciprocal coordinates:
            Coordinates               Weight
  0.000000  0.000000  0.000000      1.000000
  0.333333 -0.000000  0.000000      2.000000
  0.000000  0.333333  0.000000      2.000000
  0.333333  0.333333  0.000000      2.000000
 -0.333333  0.333333  0.000000      2.000000
 
 Following cartesian coordinates:
            Coordinates               Weight
  0.000000  0.000000  0.000000      1.000000
  0.034883  0.020140  0.000000      2.000000
  0.000000  0.040279  0.000000      2.000000
  0.034883  0.060419  0.000000      2.000000
 -0.034883  0.020140  0.000000      2.000000
 
 TETIRR: Found     24 inequivalent tetrahedra from       54


--------------------------------------------------------------------------------------------------------




 Dimension of arrays:
   k-points           NKPTS =      5   k-points in BZ     NKDIM =      5   number of bands    NBANDS=    102
   number of dos      NEDOS =    301   number of ions     NIONS =     63
   non local maximal  LDIM  =      5   non local SUM 2l+1 LMDIM =     13
   total plane-waves  NPLWV = ******
   max r-space proj   IRMAX =   4509   max aug-charges    IRDMAX=  21536
   dimension x,y,z NGX =    72 NGY =   72 NGZ =  250
   dimension x,y,z NGXF=   144 NGYF=  144 NGZF=  500
   support grid    NGXF=   144 NGYF=  144 NGZF=  500
   ions per type =              45   6  12
   NGX,Y,Z   is equivalent  to a cutoff of  12.53, 12.53, 12.74 a.u.
   NGXF,Y,Z  is equivalent  to a cutoff of  25.05, 25.05, 25.48 a.u.

 SYSTEM =  Mg_slab_in_a_box                        
 POSCAR =  Mg   O    H                             

 Startparameter for this run:
   NWRITE =      2    write-flag & timer
   PREC   = accura    normal or accurate (medium, high low for compatibility)
   ISTART =      0    job   : 0-new  1-cont  2-samecut
   ICHARG =      2    charge: 1-file 2-atom 10-const
   ISPIN  =      1    spin polarized calculation?
   LNONCOLLINEAR =      F non collinear calculations
   LSORBIT =      F    spin-orbit coupling
   INIWAV =      1    electr: 0-lowe 1-rand  2-diag
   LASPH  =      T    aspherical Exc in radial PAW
   METAGGA=      F    non-selfconsistent MetaGGA calc.

 Electronic Relaxation 1
   ENCUT  =  520.0 eV  38.22 Ry    6.18 a.u.  17.77 17.77 60.66*2*pi/ulx,y,z
   ENINI  =  520.0     initial cutoff
   ENAUG  =  605.4 eV  augmentation charge cutoff
   NELM   =    300;   NELMIN=  6; NELMDL=-12     # of ELM steps 
   EDIFF  = 0.5E-05   stopping-criterion for ELM
   LREAL  =      T    real-space projection
   NLSPLINE    = F    spline interpolate recip. space projectors
   LCOMPAT=      F    compatible to vasp.4.4
   GGA_COMPAT  = T    GGA compatible to vasp.4.4-vasp.4.6
   LMAXPAW     = -100 max onsite density
   LMAXMIX     =    2 max onsite mixed and CHGCAR
   VOSKOWN=      0    Vosko Wilk Nusair interpolation
   ROPT   =   -0.00025  -0.00025  -0.00025
 Ionic relaxation
   EDIFFG = 0.5E-04   stopping-criterion for IOM
   NSW    =      0    number of steps for IOM
   NBLOCK =      1;   KBLOCK =      1    inner block; outer block 
   IBRION =     -1    ionic relax: 0-MD 1-quasi-New 2-CG
   NFREE  =      0    steps in history (QN), initial steepest desc. (CG)
   ISIF   =      2    stress and relaxation
   IWAVPR =     10    prediction:  0-non 1-charg 2-wave 3-comb
   ISYM   =      2    0-nonsym 1-usesym 2-fastsym
   LCORR  =      T    Harris-Foulkes like correction to forces

   POTIM  = 0.5000    time-step for ionic-motion
   TEIN   =    0.0    initial temperature
   TEBEG  =    0.0;   TEEND  =   0.0 temperature during run
   SMASS  =  -3.00    Nose mass-parameter (am)
   estimated Nose-frequenzy (Omega)   =  0.10E-29 period in steps =****** mass=  -0.209E-26a.u.
   SCALEE = 1.0000    scale energy and forces
   NPACO  =    256;   APACO  = 16.0  distance and # of slots for P.C.
   PSTRESS=    0.0 pullay stress

  Mass of Ions in am
   POMASS =  24.30 16.00  1.00
  Ionic Valenz
   ZVAL   =   2.00  6.00  1.00
  Atomic Wigner-Seitz radii
   RWIGS  =  -1.00 -1.00 -1.00
  virtual crystal weights 
   VCA    =   1.00  1.00  1.00
   NELECT =     138.0000    total number of electrons
   NUPDOWN=      -1.0000    fix difference up-down

 DOS related values:
   EMIN   =  10.00;   EMAX   =-10.00  energy-range for DOS
   EFERMI =   0.00
   ISMEAR =    -5;   SIGMA  =   0.20  broadening in eV -4-tet -1-fermi 0-gaus

 Electronic relaxation 2 (details)
   IALGO  =     48    algorithm
   LDIAG  =      T    sub-space diagonalisation (order eigenvalues)
   LSUBROT=      F    optimize rotation matrix (better conditioning)
   TURBO    =      0    0=normal 1=particle mesh
   IRESTART =      0    0=no restart 2=restart with 2 vectors
   NREBOOT  =      0    no. of reboots
   NMIN     =      0    reboot dimension
   EREF     =   0.00    reference energy to select bands
   IMIX   =      4    mixing-type and parameters
     AMIX     =   0.40;   BMIX     =  1.00
     AMIX_MAG =   1.60;   BMIX_MAG =  1.00
     AMIN     =   0.10
     WC   =   100.;   INIMIX=   1;  MIXPRE=   1;  MAXMIX= -45

 Intra band minimization:
   WEIMIN = 0.0000     energy-eigenvalue tresh-hold
   EBREAK =  0.12E-07  absolut break condition
   DEPER  =   0.30     relativ break condition  

   TIME   =   0.40     timestep for ELM

  volume/ion in A,a.u.               =      40.95       276.36
  Fermi-wavevector in a.u.,A,eV,Ry     =   0.616828  1.165635  5.176694  0.380476
  Thomas-Fermi vector in A             =   1.674695
 
 Write flags
   LWAVE        =      F    write WAVECAR
   LDOWNSAMPLE  =      F    k-point downsampling of WAVECAR
   LCHARG       =      T    write CHGCAR
   LVTOT        =      F    write LOCPOT, total local potential
   LVHAR        =      T    write LOCPOT, Hartree potential only
   LELF         =      F    write electronic localiz. function (ELF)
   LORBIT       =      0    0 simple, 1 ext, 2 COOP (PROOUT), +10 PAW based schemes


 Dipole corrections
   LMONO  =      F    monopole corrections only (constant potential shift)
   LDIPOL =      T    correct potential (dipole corrections)
   IDIPOL =      3    1-x, 2-y, 3-z, 4-all directions 
   EPSILON=  1.0000000 bulk dielectric constant

 Exchange correlation treatment:
   GGA     =    BO    GGA type
   LEXCH   =    42    internal setting for exchange type
   VOSKOWN=      0    Vosko Wilk Nusair interpolation
   LHFCALC =     F    Hartree Fock is set to
   LHFONE  =     F    Hartree Fock one center treatment
   AEXX    =    0.0000 exact exchange contribution

 vdW DFT:
   LUSE_VDW   =     T    switch on vdW DFT
   Zab_VDW    =-.8491    correlation parameter
   PARAM1     =0.1833
   PARAM2     =0.2200
   PARAM3     =0.0000
   -- rVV10 --
   BPARAM     = 6.3000
   CPARAM     = 0.0093

 Linear response parameters
   LEPSILON=     F    determine dielectric tensor
   LRPA    =     F    only Hartree local field effects (RPA)
   LNABLA  =     F    use nabla operator in PAW spheres
   LVEL    =     F    velocity operator in full k-point grid
   LINTERFAST=   F  fast interpolation
   KINTER  =     0    interpolate to denser k-point grid
   CSHIFT  =0.1000    complex shift for real part using Kramers Kronig
   OMEGAMAX=  -1.0    maximum frequency
   DEG_THRESHOLD= 0.2000000E-02 threshold for treating states as degnerate
   RTIME   =   -0.100 relaxation time in fs
  (WPLASMAI=    0.000 imaginary part of plasma frequency in eV, 0.658/RTIME)
   DFIELD  = 0.0000000 0.0000000 0.0000000 field for delta impulse in time
 
 Orbital magnetization related:
   ORBITALMAG=     F  switch on orbital magnetization
   LCHIMAG   =     F  perturbation theory with respect to B field
   DQ        =  0.001000  dq finite difference perturbation B field
   LLRAUG    =     F  two centre corrections for induced B field



--------------------------------------------------------------------------------------------------------


 Static calculation
 charge density and potential will be updated during run
 non-spin polarized calculation
 RMM-DIIS sequential band-by-band
 perform sub-space diagonalisation
    before iterative eigenvector-optimisation
 modified Broyden-mixing scheme, WC =      100.0
 initial mixing is a Kerker type mixing with AMIX =  0.4000 and BMIX =      1.0000
 Hartree-type preconditioning will be used
 using additional bands           33
 real space projection scheme for non local part
 use partial core corrections
 calculate Harris-corrections to forces 
   (improved forces if not selfconsistent)
 use gradient corrections 
 use of overlap-Matrix (Vanderbilt PP)
 Fermi weights with tetrahedron method with Bloechl corrections


--------------------------------------------------------------------------------------------------------


  energy-cutoff  :      520.00
  volume of cell :     2579.96
      direct lattice vectors                 reciprocal lattice vectors
     9.555752754  0.000000000  0.000000000     0.104649003  0.060419130  0.000000000
    -4.777876377  8.275524637  0.000000000     0.000000000  0.120838260  0.000000000
     0.000000000  0.000000000 32.625095367     0.000000000  0.000000000  0.030651251

  length of vectors
     9.555752754  9.555752754 32.625095367     0.120838260  0.120838260  0.030651251


 
 k-points in units of 2pi/SCALE and weight: Auto                                    
   0.00000000  0.00000000  0.00000000       0.111
   0.03488300  0.02013971  0.00000000       0.222
   0.00000000  0.04027942  0.00000000       0.222
   0.03488300  0.06041913  0.00000000       0.222
  -0.03488300  0.02013971  0.00000000       0.222
 
 k-points in reciprocal lattice and weights: Auto                                    
   0.00000000  0.00000000  0.00000000       0.111
   0.33333333 -0.00000000  0.00000000       0.222
   0.00000000  0.33333333  0.00000000       0.222
   0.33333333  0.33333333  0.00000000       0.222
  -0.33333333  0.33333333  0.00000000       0.222
 
 position of ions in fractional coordinates (direct lattice) 
   0.00000000  0.00000000  0.00000000
   0.99916625  0.00166925  0.15818015
   0.00142889  0.00912822  0.33036434
   0.00000001  0.33333336  0.00000000
   0.00027871  0.33533101  0.15755356
   0.99005441  0.34326623  0.31241524
   0.00000002  0.66666672  0.00000000
   0.00026601  0.66925150  0.15783558
   0.01790492  0.68699766  0.31180978
   0.33333334  0.00000000  0.00000000
   0.33437440  0.00176957  0.15719502
   0.33660635  0.01698398  0.30926939
   0.33333335  0.33333336  0.00000000
   0.33158660  0.33305345  0.15710588
   0.31776000  0.33248991  0.31209131
   0.33333336  0.66666672  0.00000000
   0.33336394  0.66990631  0.15784323
   0.32633228  0.68428937  0.33015115
   0.66666668  0.00000000  0.00000000
   0.66602062  0.00006480  0.15782082
   0.67187131  0.01439942  0.31412741
   0.66666668  0.33333336  0.00000000
   0.66709864  0.33660783  0.15862254
   0.66485862  0.34383603  0.33367962
   0.66666670  0.66666672  0.00000000
   0.66975738  0.66914132  0.15788461
   0.66018559  0.67796550  0.31910494
   0.11111113  0.22222222  0.07982145
   0.10547771  0.22241713  0.23654183
   0.11111114  0.55555561  0.07982145
   0.11722496  0.56021111  0.23616050
   0.11111116  0.88888894  0.07982145
   0.11161990  0.89634460  0.23466749
   0.44444450  0.22222222  0.07982145
   0.44960527  0.23424895  0.23608770
   0.44444450  0.55555561  0.07982145
   0.44781845  0.55955779  0.23377143
   0.44444451  0.88888894  0.07982145
   0.44356651  0.88706256  0.23730058
   0.77777779  0.22222222  0.07982145
   0.77401219  0.22479797  0.23543733
   0.77777781  0.55555561  0.07982145
   0.77741897  0.55692080  0.23915734
   0.77777784  0.88888894  0.07982145
   0.77948389  0.88934842  0.23926703
   0.00203203  0.00137415  0.39622778
   0.29417343  0.96530279  0.41262016
   0.88340632  0.22096222  0.41600991
   0.60376974  0.26961493  0.40052225
   0.69240033  0.55111978  0.36393538
   0.35356552  0.70874957  0.39531445
   0.96929530  0.07155865  0.41059734
   0.09515656  0.00632632  0.41052369
   0.39471219  0.07122600  0.41065342
   0.25640763  0.94047348  0.38364849
   0.98141515  0.32714115  0.41818794
   0.86442766  0.20769401  0.38562843
   0.62157082  0.38101462  0.40293278
   0.69482670  0.26690270  0.41403793
   0.79041779  0.62463840  0.37920068
   0.42790883  0.55488759  0.33052485
   0.34534603  0.80069619  0.40701587
   0.45312549  0.71677385  0.40580413
 
 position of ions in cartesian coordinates  (Angst):
   0.00000000  0.00000000  0.00000000
   9.53981018  0.01381393  5.16064236
  -0.02995939  0.07554080 10.77816826
  -1.59262550  2.75850844  0.00000000
  -1.59950685  2.77504003  5.14019997
   7.82063158  2.84070814 10.19257691
  -3.18525100  5.51701689  0.00000000
  -3.19505901  5.53840727  5.14940099
  -3.11129483  5.68526602 10.17282370
   3.18525100  0.00000000  0.00000000
   3.18674436  0.01464410  5.12850243
   3.13537974  0.14055135 10.08994338
   1.59262550  2.75850844  0.00000000
   1.57727142  2.75619200  5.12559419
   1.44784036  2.75152843 10.18200868
  -0.00000001  5.51701689  0.00000000
  -0.01518613  5.54382619  5.14965042
  -0.15109942  5.66285357 10.77121260
   6.37050200  0.00000000  0.00000000
   6.36401874  0.00053626  5.14891944
   6.35143752  0.11916273 10.24843680
   4.77787638  2.75850844  0.00000000
   4.76635906  2.78560643  5.17507536
   4.71041855  2.84542357 10.88632945
   3.18525100  5.51701689  0.00000000
   3.20296145  5.53749549  5.15100045
   3.06933496  5.61052021 10.41082911
   0.00000017  1.83900547  2.60418248
  -0.05476260  1.84061843  7.71719990
  -1.59262550  4.59751415  2.60418248
  -1.55644664  4.63604081  7.70475881
  -3.18525076  7.35602236  2.60418248
  -3.21601156  7.41772185  7.65604911
   3.18525147  1.83900547  2.60418248
   3.17710426  1.93853293  7.70238367
   1.59262574  4.59751415  2.60418248
   1.60574444  4.63063431  7.62681513
   0.00000039  7.35602236  2.60418248
   0.00033663  7.34090805  7.74195397
   6.37050200  1.83900547  2.60418248
   6.32221221  1.86032116  7.68116526
   4.77787638  4.59751415  2.60418248
   4.76792476  4.60881183  7.80253093
   3.18525124  7.35602236  2.60418248
   3.19935857  7.35982474  7.80610969
   0.01285205  0.01137184 12.92696920
  -1.80104885  7.98838700 13.46177210
   7.38588222  1.82857829 13.57236310
   4.48128755  2.23120496 13.06707655
   3.98322415  4.56080534 11.87342661
  -0.00773312  5.86527449 12.89717156
   8.92044788  0.59218539 13.39577736
   0.87906617  0.05235366 13.39337463
   3.43146301  0.58943255 13.39760707
  -2.04329814  7.78291144 12.51656863
   7.81512056  2.70726462 13.64342131
   7.26792070  1.71877688 12.58116447
   4.11913629  3.15309586 13.14572045
   5.36436402  2.20875984 13.50802693
   4.56859191  5.16921050 12.37145837
   1.43780669  4.59198590 10.78340491
  -0.52558616  6.62618103 13.27893171
   0.90529830  5.93167968 13.23939832
 


--------------------------------------------------------------------------------------------------------


 k-point  1 :   0.0000 0.0000 0.0000  plane waves:   69403
 k-point  2 :   0.3333-0.0000 0.0000  plane waves:   69509
 k-point  3 :   0.0000 0.3333 0.0000  plane waves:   69509
 k-point  4 :   0.3333 0.3333 0.0000  plane waves:   69474
 k-point  5 :  -0.3333 0.3333 0.0000  plane waves:   69509

 maximum and minimum number of plane-waves per node :      2924     2870

 maximum number of plane-waves:     69509
 maximum index in each direction: 
   IXMAX=   18   IYMAX=   17   IZMAX=   60
   IXMIN=  -18   IYMIN=  -18   IZMIN=  -60


 real space projection operators:
  total allocation   :      22593.46 KBytes
  max/ min on nodes  :       1309.23        532.50


 parallel 3D FFT for wavefunctions:
    minimum data exchange during FFTs selected (reduces bandwidth)
 parallel 3D FFT for charge:
    minimum data exchange during FFTs selected (reduces bandwidth)


 total amount of memory used by VASP MPI-rank0    62208. kBytes
=======================================================================

   base      :      30000. kBytes
   nonlr-proj:       6305. kBytes
   fftplans  :       6459. kBytes
   grid      :      11407. kBytes
   one-center:         24. kBytes
   wavefun   :       8013. kBytes
 
     INWAV:  cpu time    0.0001: real time    0.0005
 Broyden mixing: mesh for mixing (old mesh)
   NGX = 35   NGY = 35   NGZ =121
  (NGX  =144   NGY  =144   NGZ  =500)
  gives a total of 148225 points

 initial charge density was supplied:
 charge density of overlapping atoms calculated
 number of electron     138.0000000 magnetization 
 keeping initial charge density in first step


--------------------------------------------------------------------------------------------------------


 Maximum index for non-local projection operator          297
 Maximum index for augmentation-charges          837 (set IRDMAX)


--------------------------------------------------------------------------------------------------------


 First call to EWALD:  gamma=   0.129
 Maximum number of real-space cells 4x 4x 1
 Maximum number of reciprocal cells 2x 2x 6

    FEWALD:  cpu time    0.0056: real time    0.0056


--------------------------------------- Iteration      1(   1)  ---------------------------------------


vdW kernel read from vdw_kernel.bindat
  0.0000  0.2424  0.5071  0.7962  1.1119  1.4567  1.8333  2.2446  2.6937  3.1842
  3.7199  4.3049  4.9438  5.6415  6.4036  7.2358  8.1446  9.1372 10.2212 11.4050
 12.6979 14.1099 15.6519 17.3360 19.1751 21.1837 23.3773 25.7729 28.3892 31.2465
 34.3669 37.7748 41.4965 45.5611 50.0000
 
    POTLOK:  cpu time   10.0558: real time   10.2498
    SETDIJ:  cpu time    0.1356: real time    0.1356
    EDDIAG:  cpu time    2.7058: real time    2.7066
  RMM-DIIS:  cpu time    2.2134: real time    2.2138
    ORTHCH:  cpu time    0.9898: real time    0.9900
 BZINTS: Fermi energy:  9.554158;138.000000 electrons
         Band energy: 212.757484;  BLOECHL correction: -0.152999
       DOS:  cpu time    0.0087: real time    0.0087
    --------------------------------------------
      LOOP:  cpu time   16.1091: real time   16.3045

 eigenvalue-minimisations  :   510
 total energy-change (2. order) : 0.1245180E+04  (-0.2794414E+04)
 number of electron     138.0000000 magnetization 
 augmentation part      138.0000000 magnetization 

 DIPCOR: dipole corrections for dipol
 direction  3 min pos   365,
 dipolmoment           0.000000      0.000000     -0.000310 electrons x Angstroem
 Tr[quadrupol]     -1880.715887

 energy correction for charged system         0.000000 eV
 dipol+quadrupol energy correction           -0.000000 eV
 added-field ion interaction          0.001333 eV  (added to PSCEN)


 Free energy of the ion-electron system (eV)
  ---------------------------------------------------
  alpha Z        PSCENC =        63.16239662
  Ewald energy   TEWEN  =     13043.32843173
  -Hartree energ DENC   =    -16267.31523844
  -exchange      EXHF   =         0.00000000
  -V(xc)+E(xc)   XCENC  =     -2050.88602571
  PAW double counting   =      5135.15659847    -2719.01140655
  entropy T*S    EENTRO =         0.00000000
  eigenvalues    EBANDS =       212.75748365
  atomic energy  EATOM  =      3827.98814510
  Solvation  Ediel_sol  =         0.00000000
  ---------------------------------------------------
  free energy    TOTEN  =      1245.18038488 eV

  energy without entropy =     1245.18038488  energy(sigma->0) =     1245.18038488


--------------------------------------------------------------------------------------------------------




--------------------------------------- Iteration      1(   2)  ---------------------------------------


    EDDIAG:  cpu time    2.4823: real time    2.5038
  RMM-DIIS:  cpu time    1.3226: real time    1.3228
    ORTHCH:  cpu time    0.4422: real time    0.4422
 BZINTS: Fermi energy:  2.163593;138.000000 electrons
         Band energy:-485.510879;  BLOECHL correction: -0.165704
       DOS:  cpu time    0.0037: real time    0.0037
    --------------------------------------------
      LOOP:  cpu time    4.2508: real time    4.2726

 eigenvalue-minimisations  :   510
 total energy-change (2. order) :-0.6982684E+03  (-0.7580800E+03)
 number of electron     138.0000000 magnetization 
 augmentation part      138.0000000 magnetization 

 DIPCOR: dipole corrections for dipol
 direction  3 min pos   365,
 dipolmoment           0.000000      0.000000     -0.000310 electrons x Angstroem
 Tr[quadrupol]     -1880.715887

 energy correction for charged system         0.000000 eV
 dipol+quadrupol energy correction           -0.000000 eV
 added-field ion interaction          0.001333 eV  (added to PSCEN)


 Free energy of the ion-electron system (eV)
  ---------------------------------------------------
  alpha Z        PSCENC =        63.16239662
  Ewald energy   TEWEN  =     13043.32843173
  -Hartree energ DENC   =    -16267.31523844
  -exchange      EXHF   =         0.00000000
  -V(xc)+E(xc)   XCENC  =     -2050.88602571
  PAW double counting   =      5135.15659847    -2719.01140655
  entropy T*S    EENTRO =         0.00000000
  eigenvalues    EBANDS =      -485.51087912
  atomic energy  EATOM  =      3827.98814510
  Solvation  Ediel_sol  =         0.00000000
  ---------------------------------------------------
  free energy    TOTEN  =       546.91202211 eV

  energy without entropy =      546.91202211  energy(sigma->0) =      546.91202211


--------------------------------------------------------------------------------------------------------




--------------------------------------- Iteration      1(   3)  ---------------------------------------


    EDDIAG:  cpu time    1.2625: real time    1.2851
  RMM-DIIS:  cpu time    1.3397: real time    1.3399
    ORTHCH:  cpu time    0.5117: real time    0.5118
 BZINTS: Fermi energy:  0.340136;138.000000 electrons
         Band energy:-721.482729;  BLOECHL correction: -0.275838
       DOS:  cpu time    0.0034: real time    0.0034
    --------------------------------------------
      LOOP:  cpu time    3.1172: real time    3.1401

 eigenvalue-minimisations  :   510
 total energy-change (2. order) :-0.2359718E+03  (-0.3012410E+03)
 number of electron     138.0000000 magnetization 
 augmentation part      138.0000000 magnetization 

 DIPCOR: dipole corrections for dipol
 direction  3 min pos   365,
 dipolmoment           0.000000      0.000000     -0.000310 electrons x Angstroem
 Tr[quadrupol]     -1880.715887

 energy correction for charged system         0.000000 eV
 dipol+quadrupol energy correction           -0.000000 eV
 added-field ion interaction          0.001333 eV  (added to PSCEN)


 Free energy of the ion-electron system (eV)
  ---------------------------------------------------
  alpha Z        PSCENC =        63.16239662
  Ewald energy   TEWEN  =     13043.32843173
  -Hartree energ DENC   =    -16267.31523844
  -exchange      EXHF   =         0.00000000
  -V(xc)+E(xc)   XCENC  =     -2050.88602571
  PAW double counting   =      5135.15659847    -2719.01140655
  entropy T*S    EENTRO =         0.00000000
  eigenvalues    EBANDS =      -721.48272897
  atomic energy  EATOM  =      3827.98814510
  Solvation  Ediel_sol  =         0.00000000
  ---------------------------------------------------
  free energy    TOTEN  =       310.94017226 eV

  energy without entropy =      310.94017226  energy(sigma->0) =      310.94017226


--------------------------------------------------------------------------------------------------------




--------------------------------------- Iteration      1(   4)  ---------------------------------------


    EDDIAG:  cpu time    1.5932: real time    1.6152
  RMM-DIIS:  cpu time    1.4911: real time    1.4913
    ORTHCH:  cpu time    0.4630: real time    0.4630
 BZINTS: Fermi energy: -0.733715;138.000000 electrons
         Band energy:-895.178824;  BLOECHL correction: -0.157811
       DOS:  cpu time    0.0051: real time    0.0051
    --------------------------------------------
      LOOP:  cpu time    3.5524: real time    3.5747

 eigenvalue-minimisations  :   510
 total energy-change (2. order) :-0.1736961E+03  (-0.1493497E+03)
 number of electron     138.0000000 magnetization 
 augmentation part      138.0000000 magnetization 

 DIPCOR: dipole corrections for dipol
 direction  3 min pos   365,
 dipolmoment           0.000000      0.000000     -0.000310 electrons x Angstroem
 Tr[quadrupol]     -1880.715887

 energy correction for charged system         0.000000 eV
 dipol+quadrupol energy correction           -0.000000 eV
 added-field ion interaction          0.001333 eV  (added to PSCEN)


 Free energy of the ion-electron system (eV)
  ---------------------------------------------------
  alpha Z        PSCENC =        63.16239662
  Ewald energy   TEWEN  =     13043.32843173
  -Hartree energ DENC   =    -16267.31523844
  -exchange      EXHF   =         0.00000000
  -V(xc)+E(xc)   XCENC  =     -2050.88602571
  PAW double counting   =      5135.15659847    -2719.01140655
  entropy T*S    EENTRO =         0.00000000
  eigenvalues    EBANDS =      -895.17882431
  atomic energy  EATOM  =      3827.98814510
  Solvation  Ediel_sol  =         0.00000000
  ---------------------------------------------------
  free energy    TOTEN  =       137.24407692 eV

  energy without entropy =      137.24407692  energy(sigma->0) =      137.24407692


--------------------------------------------------------------------------------------------------------




--------------------------------------- Iteration      1(   5)  ---------------------------------------


    EDDIAG:  cpu time    1.4084: real time    1.4269
  RMM-DIIS:  cpu time    1.4160: real time    1.4162
    ORTHCH:  cpu time    0.4537: real time    0.4538
 BZINTS: Fermi energy: -1.243427;138.000000 electrons
         Band energy:***********;  BLOECHL correction: -0.179669
       DOS:  cpu time    0.0037: real time    0.0037
    --------------------------------------------
      LOOP:  cpu time    3.2818: real time    3.3006

 eigenvalue-minimisations  :   510
 total energy-change (2. order) :-0.1171080E+03  (-0.9332860E+02)
 number of electron     138.0000000 magnetization 
 augmentation part      138.0000000 magnetization 

 DIPCOR: dipole corrections for dipol
 direction  3 min pos   365,
 dipolmoment           0.000000      0.000000     -0.000310 electrons x Angstroem
 Tr[quadrupol]     -1880.715887

 energy correction for charged system         0.000000 eV
 dipol+quadrupol energy correction           -0.000000 eV
 added-field ion interaction          0.001333 eV  (added to PSCEN)


 Free energy of the ion-electron system (eV)
  ---------------------------------------------------
  alpha Z        PSCENC =        63.16239662
  Ewald energy   TEWEN  =     13043.32843173
  -Hartree energ DENC   =    -16267.31523844
  -exchange      EXHF   =         0.00000000
  -V(xc)+E(xc)   XCENC  =     -2050.88602571
  PAW double counting   =      5135.15659847    -2719.01140655
  entropy T*S    EENTRO =         0.00000000
  eigenvalues    EBANDS =     -1012.28679849
  atomic energy  EATOM  =      3827.98814510
  Solvation  Ediel_sol  =         0.00000000
  ---------------------------------------------------
  free energy    TOTEN  =        20.13610275 eV

  energy without entropy =       20.13610275  energy(sigma->0) =       20.13610275


--------------------------------------------------------------------------------------------------------




--------------------------------------- Iteration      1(   6)  ---------------------------------------


    EDDIAG:  cpu time    1.4201: real time    1.4393
  RMM-DIIS:  cpu time    1.3883: real time    1.3885
    ORTHCH:  cpu time    0.3852: real time    0.3853
 BZINTS: Fermi energy: -1.363545;138.000000 electrons
         Band energy:***********;  BLOECHL correction: -0.061106
       DOS:  cpu time    0.0053: real time    0.0053
    --------------------------------------------
      LOOP:  cpu time    3.1989: real time    3.2184

 eigenvalue-minimisations  :   510
 total energy-change (2. order) :-0.6411375E+02  (-0.4846463E+02)
 number of electron     138.0000000 magnetization 
 augmentation part      138.0000000 magnetization 

 DIPCOR: dipole corrections for dipol
 direction  3 min pos   365,
 dipolmoment           0.000000      0.000000     -0.000310 electrons x Angstroem
 Tr[quadrupol]     -1880.715887

 energy correction for charged system         0.000000 eV
 dipol+quadrupol energy correction           -0.000000 eV
 added-field ion interaction          0.001333 eV  (added to PSCEN)


 Free energy of the ion-electron system (eV)
  ---------------------------------------------------
  alpha Z        PSCENC =        63.16239662
  Ewald energy   TEWEN  =     13043.32843173
  -Hartree energ DENC   =    -16267.31523844
  -exchange      EXHF   =         0.00000000
  -V(xc)+E(xc)   XCENC  =     -2050.88602571
  PAW double counting   =      5135.15659847    -2719.01140655
  entropy T*S    EENTRO =         0.00000000
  eigenvalues    EBANDS =     -1076.40055187
  atomic energy  EATOM  =      3827.98814510
  Solvation  Ediel_sol  =         0.00000000
  ---------------------------------------------------
  free energy    TOTEN  =       -43.97765064 eV

  energy without entropy =      -43.97765064  energy(sigma->0) =      -43.97765064


--------------------------------------------------------------------------------------------------------




--------------------------------------- Iteration      1(   7)  ---------------------------------------


    EDDIAG:  cpu time    1.6522: real time    1.6736
  RMM-DIIS:  cpu time    1.9836: real time    1.9838
    ORTHCH:  cpu time    1.0056: real time    1.0058
 BZINTS: Fermi energy: -1.419773;138.000000 electrons
         Band energy:***********;  BLOECHL correction: -0.076020
       DOS:  cpu time    0.0047: real time    0.0047
    --------------------------------------------
      LOOP:  cpu time    4.6462: real time    4.6679

 eigenvalue-minimisations  :   510
 total energy-change (2. order) :-0.2700713E+02  (-0.2028726E+02)
 number of electron     138.0000000 magnetization 
 augmentation part      138.0000000 magnetization 

 DIPCOR: dipole corrections for dipol
 direction  3 min pos   365,
 dipolmoment           0.000000      0.000000     -0.000310 electrons x Angstroem
 Tr[quadrupol]     -1880.715887

 energy correction for charged system         0.000000 eV
 dipol+quadrupol energy correction           -0.000000 eV
 added-field ion interaction          0.001333 eV  (added to PSCEN)


 Free energy of the ion-electron system (eV)
  ---------------------------------------------------
  alpha Z        PSCENC =        63.16239662
  Ewald energy   TEWEN  =     13043.32843173
  -Hartree energ DENC   =    -16267.31523844
  -exchange      EXHF   =         0.00000000
  -V(xc)+E(xc)   XCENC  =     -2050.88602571
  PAW double counting   =      5135.15659847    -2719.01140655
  entropy T*S    EENTRO =         0.00000000
  eigenvalues    EBANDS =     -1103.40768462
  atomic energy  EATOM  =      3827.98814510
  Solvation  Ediel_sol  =         0.00000000
  ---------------------------------------------------
  free energy    TOTEN  =       -70.98478339 eV

  energy without entropy =      -70.98478339  energy(sigma->0) =      -70.98478339


--------------------------------------------------------------------------------------------------------




--------------------------------------- Iteration      1(   8)  ---------------------------------------


    EDDIAG:  cpu time    2.6640: real time    2.6867
  RMM-DIIS:  cpu time    2.2055: real time    2.2058
    ORTHCH:  cpu time    1.0039: real time    1.0040
 BZINTS: Fermi energy: -1.460270;138.000000 electrons
         Band energy:***********;  BLOECHL correction: -0.074413
       DOS:  cpu time    0.0038: real time    0.0038
    --------------------------------------------
      LOOP:  cpu time    5.8772: real time    5.9003

 eigenvalue-minimisations  :   510
 total energy-change (2. order) :-0.7178480E+01  (-0.5939440E+01)
 number of electron     138.0000000 magnetization 
 augmentation part      138.0000000 magnetization 

 DIPCOR: dipole corrections for dipol
 direction  3 min pos   365,
 dipolmoment           0.000000      0.000000     -0.000310 electrons x Angstroem
 Tr[quadrupol]     -1880.715887

 energy correction for charged system         0.000000 eV
 dipol+quadrupol energy correction           -0.000000 eV
 added-field ion interaction          0.001333 eV  (added to PSCEN)


 Free energy of the ion-electron system (eV)
  ---------------------------------------------------
  alpha Z        PSCENC =        63.16239662
  Ewald energy   TEWEN  =     13043.32843173
  -Hartree energ DENC   =    -16267.31523844
  -exchange      EXHF   =         0.00000000
  -V(xc)+E(xc)   XCENC  =     -2050.88602571
  PAW double counting   =      5135.15659847    -2719.01140655
  entropy T*S    EENTRO =         0.00000000
  eigenvalues    EBANDS =     -1110.58616460
  atomic energy  EATOM  =      3827.98814510
  Solvation  Ediel_sol  =         0.00000000
  ---------------------------------------------------
  free energy    TOTEN  =       -78.16326337 eV

  energy without entropy =      -78.16326337  energy(sigma->0) =      -78.16326337


--------------------------------------------------------------------------------------------------------




--------------------------------------- Iteration      1(   9)  ---------------------------------------


    EDDIAG:  cpu time    2.7056: real time    2.7263
  RMM-DIIS:  cpu time    5.0192: real time    5.0199
    ORTHCH:  cpu time    1.0205: real time    1.0206
 BZINTS: Fermi energy: -1.496851;138.000000 electrons
         Band energy:***********;  BLOECHL correction: -0.071553
       DOS:  cpu time    0.0039: real time    0.0039
    --------------------------------------------
      LOOP:  cpu time    8.7492: real time    8.7707

 eigenvalue-minimisations  :  1456
 total energy-change (2. order) :-0.2261760E+01  (-0.2159834E+01)
 number of electron     138.0000000 magnetization 
 augmentation part      138.0000000 magnetization 

 DIPCOR: dipole corrections for dipol
 direction  3 min pos   365,
 dipolmoment           0.000000      0.000000     -0.000310 electrons x Angstroem
 Tr[quadrupol]     -1880.715887

 energy correction for charged system         0.000000 eV
 dipol+quadrupol energy correction           -0.000000 eV
 added-field ion interaction          0.001333 eV  (added to PSCEN)


 Free energy of the ion-electron system (eV)
  ---------------------------------------------------
  alpha Z        PSCENC =        63.16239662
  Ewald energy   TEWEN  =     13043.32843173
  -Hartree energ DENC   =    -16267.31523844
  -exchange      EXHF   =         0.00000000
  -V(xc)+E(xc)   XCENC  =     -2050.88602571
  PAW double counting   =      5135.15659847    -2719.01140655
  entropy T*S    EENTRO =         0.00000000
  eigenvalues    EBANDS =     -1112.84792413
  atomic energy  EATOM  =      3827.98814510
  Solvation  Ediel_sol  =         0.00000000
  ---------------------------------------------------
  free energy    TOTEN  =       -80.42502290 eV

  energy without entropy =      -80.42502290  energy(sigma->0) =      -80.42502290


--------------------------------------------------------------------------------------------------------




--------------------------------------- Iteration      1(  10)  ---------------------------------------


    EDDIAG:  cpu time    2.7216: real time    2.7451
  RMM-DIIS:  cpu time    5.9561: real time    5.9568
    ORTHCH:  cpu time    0.9861: real time    0.9862
 BZINTS: Fermi energy: -1.500938;138.000000 electrons
         Band energy:***********;  BLOECHL correction: -0.069617
       DOS:  cpu time    0.0102: real time    0.0102
    --------------------------------------------
      LOOP:  cpu time    9.6739: real time    9.6983

 eigenvalue-minimisations  :  1757
 total energy-change (2. order) :-0.3146405E+00  (-0.3221826E+00)
 number of electron     138.0000000 magnetization 
 augmentation part      138.0000000 magnetization 

 DIPCOR: dipole corrections for dipol
 direction  3 min pos   365,
 dipolmoment           0.000000      0.000000     -0.000310 electrons x Angstroem
 Tr[quadrupol]     -1880.715887

 energy correction for charged system         0.000000 eV
 dipol+quadrupol energy correction           -0.000000 eV
 added-field ion interaction          0.001333 eV  (added to PSCEN)


 Free energy of the ion-electron system (eV)
  ---------------------------------------------------
  alpha Z        PSCENC =        63.16239662
  Ewald energy   TEWEN  =     13043.32843173
  -Hartree energ DENC   =    -16267.31523844
  -exchange      EXHF   =         0.00000000
  -V(xc)+E(xc)   XCENC  =     -2050.88602571
  PAW double counting   =      5135.15659847    -2719.01140655
  entropy T*S    EENTRO =         0.00000000
  eigenvalues    EBANDS =     -1113.16256465
  atomic energy  EATOM  =      3827.98814510
  Solvation  Ediel_sol  =         0.00000000
  ---------------------------------------------------
  free energy    TOTEN  =       -80.73966342 eV

  energy without entropy =      -80.73966342  energy(sigma->0) =      -80.73966342


--------------------------------------------------------------------------------------------------------




--------------------------------------- Iteration      1(  11)  ---------------------------------------


    EDDIAG:  cpu time    2.6988: real time    2.7211
  RMM-DIIS:  cpu time    5.9444: real time    5.9452
    ORTHCH:  cpu time    1.0013: real time    1.0014
 BZINTS: Fermi energy: -1.501639;138.000000 electrons
         Band energy:***********;  BLOECHL correction: -0.069459
       DOS:  cpu time    0.0060: real time    0.0060
    --------------------------------------------
      LOOP:  cpu time    9.6504: real time    9.6736

 eigenvalue-minimisations  :  1718
 total energy-change (2. order) : 0.1066447E-02  (-0.1634492E-01)
 number of electron     138.0000000 magnetization 
 augmentation part      138.0000000 magnetization 

 DIPCOR: dipole corrections for dipol
 direction  3 min pos   365,
 dipolmoment           0.000000      0.000000     -0.000310 electrons x Angstroem
 Tr[quadrupol]     -1880.715887

 energy correction for charged system         0.000000 eV
 dipol+quadrupol energy correction           -0.000000 eV
 added-field ion interaction          0.001333 eV  (added to PSCEN)


 Free energy of the ion-electron system (eV)
  ---------------------------------------------------
  alpha Z        PSCENC =        63.16239662
  Ewald energy   TEWEN  =     13043.32843173
  -Hartree energ DENC   =    -16267.31523844
  -exchange      EXHF   =         0.00000000
  -V(xc)+E(xc)   XCENC  =     -2050.88602571
  PAW double counting   =      5135.15659847    -2719.01140655
  entropy T*S    EENTRO =         0.00000000
  eigenvalues    EBANDS =     -1113.16149820
  atomic energy  EATOM  =      3827.98814510
  Solvation  Ediel_sol  =         0.00000000
  ---------------------------------------------------
  free energy    TOTEN  =       -80.73859697 eV

  energy without entropy =      -80.73859697  energy(sigma->0) =      -80.73859697


--------------------------------------------------------------------------------------------------------




--------------------------------------- Iteration      1(  12)  ---------------------------------------


    EDDIAG:  cpu time    2.6807: real time    2.6995
  RMM-DIIS:  cpu time    4.5547: real time    4.5554
    ORTHCH:  cpu time    0.3539: real time    0.3540
 BZINTS: Fermi energy: -1.501740;138.000000 electrons
         Band energy:***********;  BLOECHL correction: -0.069451
       DOS:  cpu time    0.0031: real time    0.0031
    CHARGE:  cpu time    0.2467: real time    0.2468
    MIXING:  cpu time    0.0045: real time    0.0045
    --------------------------------------------
      LOOP:  cpu time    7.8436: real time    7.8632

 eigenvalue-minimisations  :  1799
 total energy-change (2. order) :-0.2522058E-02  (-0.3305043E-02)
 number of electron     138.0000002 magnetization 
 augmentation part        5.2627856 magnetization 

 DIPCOR: dipole corrections for dipol
 direction  3 min pos   365,
 dipolmoment           0.000000      0.000000     -0.000310 electrons x Angstroem
 Tr[quadrupol]     -1880.715887

 energy correction for charged system         0.000000 eV
 dipol+quadrupol energy correction           -0.000000 eV
 added-field ion interaction          0.001333 eV  (added to PSCEN)


 Broyden mixing:
  rms(total) = 0.20176E+01    rms(broyden)= 0.20165E+01
  rms(prec ) = 0.21114E+01
  weight for this iteration     100.00

 Free energy of the ion-electron system (eV)
  ---------------------------------------------------
  alpha Z        PSCENC =        63.16239662
  Ewald energy   TEWEN  =     13043.32843173
  -Hartree energ DENC   =    -16267.31523844
  -exchange      EXHF   =         0.00000000
  -V(xc)+E(xc)   XCENC  =     -2050.88602571
  PAW double counting   =      5135.15659847    -2719.01140655
  entropy T*S    EENTRO =         0.00000000
  eigenvalues    EBANDS =     -1113.16402026
  atomic energy  EATOM  =      3827.98814510
  Solvation  Ediel_sol  =         0.00000000
  ---------------------------------------------------
  free energy    TOTEN  =       -80.74111903 eV

  energy without entropy =      -80.74111903  energy(sigma->0) =      -80.74111903


--------------------------------------------------------------------------------------------------------




--------------------------------------- Iteration      1(  13)  ---------------------------------------


    POTLOK:  cpu time    7.0742: real time    7.0952
    SETDIJ:  cpu time    0.1331: real time    0.1332
    EDDIAG:  cpu time    1.3885: real time    1.3889
  RMM-DIIS:  cpu time    3.3123: real time    3.3128
    ORTHCH:  cpu time    0.3637: real time    0.3637
 BZINTS: Fermi energy: -1.091291;138.000000 electrons
         Band energy:-929.906135;  BLOECHL correction: -0.065144
       DOS:  cpu time    0.0051: real time    0.0051
    CHARGE:  cpu time    0.2378: real time    0.2378
    MIXING:  cpu time    0.0039: real time    0.0039
    --------------------------------------------
      LOOP:  cpu time   12.5187: real time   12.5407

 eigenvalue-minimisations  :  1424
 total energy-change (2. order) : 0.1026275E+02  (-0.6167036E+01)
 number of electron     138.0000002 magnetization 
 augmentation part        4.4740554 magnetization 

 DIPCOR: dipole corrections for dipol
 direction  3 min pos   365,
 dipolmoment           0.000000      0.000000      0.393254 electrons x Angstroem
 Tr[quadrupol]     -1892.583753

 energy correction for charged system         0.000000 eV
 dipol+quadrupol energy correction           -0.005423 eV
 added-field ion interaction         -1.693737 eV  (added to PSCEN)


 Broyden mixing:
  rms(total) = 0.79012E+00    rms(broyden)= 0.78957E+00
  rms(prec ) = 0.94490E+00
  weight for this iteration     100.00

 eigenvalues of (default mixing * dielectric matrix)
  average eigenvalue GAMMA=   0.9430
  0.9430

 Free energy of the ion-electron system (eV)
  ---------------------------------------------------
  alpha Z        PSCENC =        61.46190301
  Ewald energy   TEWEN  =     13043.32843173
  -Hartree energ DENC   =    -16445.96200177
  -exchange      EXHF   =         0.00000000
  -V(xc)+E(xc)   XCENC  =     -2040.96593461
  PAW double counting   =      5558.37196858    -3144.79474231
  entropy T*S    EENTRO =         0.00000000
  eigenvalues    EBANDS =      -929.90613538
  atomic energy  EATOM  =      3827.98814510
  Solvation  Ediel_sol  =         0.00000000
  ---------------------------------------------------
  free energy    TOTEN  =       -70.47836564 eV

  energy without entropy =      -70.47836564  energy(sigma->0) =      -70.47836564


--------------------------------------------------------------------------------------------------------




--------------------------------------- Iteration      1(  14)  ---------------------------------------


    POTLOK:  cpu time    8.1954: real time    8.2176
    SETDIJ:  cpu time    0.1341: real time    0.1341
    EDDIAG:  cpu time    2.6909: real time    2.6915
  RMM-DIIS:  cpu time    5.7457: real time    5.7464
    ORTHCH:  cpu time    1.0793: real time    1.0794
 BZINTS: Fermi energy: -0.806486;138.000000 electrons
         Band energy:-985.726829;  BLOECHL correction: -0.014421
       DOS:  cpu time    0.0037: real time    0.0037
    CHARGE:  cpu time    0.4917: real time    0.4918
    MIXING:  cpu time    0.0041: real time    0.0041
    --------------------------------------------
      LOOP:  cpu time   18.3449: real time   18.3686

 eigenvalue-minimisations  :  1668
 total energy-change (2. order) :-0.1725646E+02  (-0.8272961E+00)
 number of electron     138.0000002 magnetization 
 augmentation part        4.4428085 magnetization 

 DIPCOR: dipole corrections for dipol
 direction  3 min pos   377,
 dipolmoment           0.000000      0.000000     -1.793934 electrons x Angstroem
 Tr[quadrupol]     -1880.214446

 energy correction for charged system         0.000000 eV
 dipol+quadrupol energy correction           -0.112858 eV
 added-field ion interaction         -5.869239 eV  (added to PSCEN)


 Broyden mixing:
  rms(total) = 0.94303E+00    rms(broyden)= 0.94300E+00
  rms(prec ) = 0.27025E+01
  weight for this iteration     100.00

 eigenvalues of (default mixing * dielectric matrix)
  average eigenvalue GAMMA=   0.7999
  0.9531  0.6468

 Free energy of the ion-electron system (eV)
  ---------------------------------------------------
  alpha Z        PSCENC =        57.17896656
  Ewald energy   TEWEN  =     13043.32843173
  -Hartree energ DENC   =    -16405.08499001
  -exchange      EXHF   =         0.00000000
  -V(xc)+E(xc)   XCENC  =     -2038.98217666
  PAW double counting   =      5718.42549452    -3304.86187008
  entropy T*S    EENTRO =         0.00000000
  eigenvalues    EBANDS =      -985.72682936
  atomic energy  EATOM  =      3827.98814510
  Solvation  Ediel_sol  =         0.00000000
  ---------------------------------------------------
  free energy    TOTEN  =       -87.73482818 eV

  energy without entropy =      -87.73482818  energy(sigma->0) =      -87.73482818


--------------------------------------------------------------------------------------------------------




--------------------------------------- Iteration      1(  15)  ---------------------------------------


    POTLOK:  cpu time    9.6244: real time    9.6476
    SETDIJ:  cpu time    0.1347: real time    0.1347
    EDDIAG:  cpu time    2.6807: real time    2.6813
  RMM-DIIS:  cpu time    4.9563: real time    4.9569
    ORTHCH:  cpu time    1.0721: real time    1.0722
 BZINTS: Fermi energy: -1.117410;138.000000 electrons
         Band energy:-920.926578;  BLOECHL correction: -0.076024
       DOS:  cpu time    0.0052: real time    0.0052
    CHARGE:  cpu time    0.4913: real time    0.4914
    MIXING:  cpu time    0.0043: real time    0.0043
    --------------------------------------------
      LOOP:  cpu time   18.9691: real time   18.9936

 eigenvalue-minimisations  :  1416
 total energy-change (2. order) : 0.1820549E+02  (-0.2069289E+00)
 number of electron     138.0000002 magnetization 
 augmentation part        4.3825348 magnetization 

 DIPCOR: dipole corrections for dipol
 direction  3 min pos   385,
 dipolmoment           0.000000      0.000000      0.056449 electrons x Angstroem
 Tr[quadrupol]     -1891.281296

 energy correction for charged system         0.000000 eV
 dipol+quadrupol energy correction           -0.000112 eV
 added-field ion interaction          0.469894 eV  (added to PSCEN)


 Broyden mixing:
  rms(total) = 0.49816E+00    rms(broyden)= 0.49813E+00
  rms(prec ) = 0.58682E+00
  weight for this iteration     100.00

 eigenvalues of (default mixing * dielectric matrix)
  average eigenvalue GAMMA=   1.0687
  1.8956  1.1659  0.1447

 Free energy of the ion-electron system (eV)
  ---------------------------------------------------
  alpha Z        PSCENC =        63.63084576
  Ewald energy   TEWEN  =     13043.32843173
  -Hartree energ DENC   =    -16458.54457158
  -exchange      EXHF   =         0.00000000
  -V(xc)+E(xc)   XCENC  =     -2038.57822019
  PAW double counting   =      5751.42742467    -3337.85481418
  entropy T*S    EENTRO =         0.00000000
  eigenvalues    EBANDS =      -920.92657817
  atomic energy  EATOM  =      3827.98814510
  Solvation  Ediel_sol  =         0.00000000
  ---------------------------------------------------
  free energy    TOTEN  =       -69.52933686 eV

  energy without entropy =      -69.52933686  energy(sigma->0) =      -69.52933686


--------------------------------------------------------------------------------------------------------




--------------------------------------- Iteration      1(  16)  ---------------------------------------


    POTLOK:  cpu time    9.0002: real time    9.0241
    SETDIJ:  cpu time    0.1338: real time    0.1338
    EDDIAG:  cpu time    1.2644: real time    1.2648
  RMM-DIIS:  cpu time    3.5999: real time    3.6004
    ORTHCH:  cpu time    0.5081: real time    0.5082
 BZINTS: Fermi energy: -0.801208;138.000000 electrons
         Band energy:-900.976926;  BLOECHL correction: -0.086781
       DOS:  cpu time    0.0043: real time    0.0043
    CHARGE:  cpu time    0.3044: real time    0.3044
    MIXING:  cpu time    0.0069: real time    0.0069
    --------------------------------------------
      LOOP:  cpu time   14.8220: real time   14.8468

 eigenvalue-minimisations  :  1550
 total energy-change (2. order) : 0.2215725E+00  (-0.1235060E+00)
 number of electron     138.0000002 magnetization 
 augmentation part        4.4442020 magnetization 

 DIPCOR: dipole corrections for dipol
 direction  3 min pos   390,
 dipolmoment           0.000000      0.000000     -0.147936 electrons x Angstroem
 Tr[quadrupol]     -1895.872174

 energy correction for charged system         0.000000 eV
 dipol+quadrupol energy correction           -0.000767 eV
 added-field ion interaction         -1.698593 eV  (added to PSCEN)


 Broyden mixing:
  rms(total) = 0.22286E+00    rms(broyden)= 0.22285E+00
  rms(prec ) = 0.31956E+00
  weight for this iteration     100.00

 eigenvalues of (default mixing * dielectric matrix)
  average eigenvalue GAMMA=   1.0607
  2.3953  0.9600  0.7398  0.1478

 Free energy of the ion-electron system (eV)
  ---------------------------------------------------
  alpha Z        PSCENC =        61.46170296
  Ewald energy   TEWEN  =     13043.32843173
  -Hartree energ DENC   =    -16477.69125973
  -exchange      EXHF   =         0.00000000
  -V(xc)+E(xc)   XCENC  =     -2037.17216115
  PAW double counting   =      5875.10734559    -3461.35304329
  entropy T*S    EENTRO =         0.00000000
  eigenvalues    EBANDS =      -900.97692561
  atomic energy  EATOM  =      3827.98814510
  Solvation  Ediel_sol  =         0.00000000
  ---------------------------------------------------
  free energy    TOTEN  =       -69.30776440 eV

  energy without entropy =      -69.30776440  energy(sigma->0) =      -69.30776440


--------------------------------------------------------------------------------------------------------




--------------------------------------- Iteration      1(  17)  ---------------------------------------


    POTLOK:  cpu time    7.4142: real time    7.4323
    SETDIJ:  cpu time    0.1345: real time    0.1345
    EDDIAG:  cpu time    1.6398: real time    1.6402
  RMM-DIIS:  cpu time    3.3550: real time    3.3554
    ORTHCH:  cpu time    0.4711: real time    0.4711
 BZINTS: Fermi energy: -0.777420;138.000000 electrons
         Band energy:-892.827615;  BLOECHL correction: -0.095387
       DOS:  cpu time    0.0031: real time    0.0031
    CHARGE:  cpu time    0.4025: real time    0.4026
    MIXING:  cpu time    0.0051: real time    0.0051
    --------------------------------------------
      LOOP:  cpu time   13.4253: real time   13.4443

 eigenvalue-minimisations  :  1310
 total energy-change (2. order) : 0.1959408E+00  (-0.3681617E-01)
 number of electron     138.0000002 magnetization 
 augmentation part        4.4474671 magnetization 

 DIPCOR: dipole corrections for dipol
 direction  3 min pos   389,
 dipolmoment           0.000000      0.000000     -0.353410 electrons x Angstroem
 Tr[quadrupol]     -1894.590476

 energy correction for charged system         0.000000 eV
[...]
  0.014  -0.001  -0.000   0.053   0.000   0.000  -0.003  -0.000  -0.000   0.000   0.011  -0.000   0.000
  0.001   0.000  -0.001   0.000   0.077   0.000  -0.000  -0.004  -0.003  -0.000  -0.000   0.004   0.000
  0.000   0.000  -0.004   0.000   0.000   0.000  -0.000  -0.000  -0.000  -0.000  -0.000   0.000   0.000
 -0.003   0.000   0.000  -0.003  -0.000  -0.000   0.000   0.000   0.000  -0.000  -0.001   0.000  -0.000
 -0.000  -0.000   0.000  -0.000  -0.004  -0.000   0.000   0.000   0.000   0.000   0.000  -0.000  -0.000
  0.001   0.000   0.000  -0.000  -0.003  -0.000   0.000   0.000   0.004   0.000   0.000  -0.000   0.000
 -0.000   0.000   0.004   0.000  -0.000  -0.000  -0.000   0.000   0.000   0.002   0.000   0.000  -0.000
 -0.022   0.000  -0.000   0.011  -0.000  -0.000  -0.001   0.000   0.000   0.000   0.004  -0.000  -0.000
  0.000   0.000  -0.000  -0.000   0.004   0.000   0.000  -0.000  -0.000   0.000  -0.000   0.002  -0.000
 -0.001  -0.000  -0.002   0.000   0.000   0.000  -0.000  -0.000   0.000  -0.000  -0.000  -0.000   0.003


------------------------ aborting loop because EDIFF is reached ----------------------------------------


    CHARGE:  cpu time    0.7048: real time    0.7049
    FORLOC:  cpu time    0.0414: real time    0.0414
    FORNL :  cpu time    1.8499: real time    1.8501
    STRESS:  cpu time    5.5244: real time    5.5251
    FORCOR:  cpu time    9.6022: real time    9.6035
    FORHAR:  cpu time    0.2434: real time    0.2435
    MIXING:  cpu time    0.0094: real time    0.0094
    OFIELD:  cpu time    0.0000: real time    0.0000

  FORCE on cell =-STRESS in cart. coord.  units (eV):
  Direction    XX          YY          ZZ          XY          YZ          ZX
  --------------------------------------------------------------------------------------
  Alpha Z    63.16106    63.16106    63.16106
  Ewald   14567.54162 14425.47112-15949.69429  -173.17145    58.50221   138.99394
  Hartree 15458.78171 15346.43989-14295.52968  -123.37820   -16.18081    41.55487
  E(xc)    -445.70849  -445.94244  -444.65285     0.01565     0.52632     0.41304
  Local  -30981.28884-30739.01767 29277.76122   298.78215    -9.26384  -148.01301
  n-local   119.17154   119.59995   110.91406    -0.78343     0.52234     1.23377
  augment    44.10087    44.74609    45.74916    -0.14266    -2.25587    -2.24612
  Kinetic  1166.32382  1177.37965  1192.90018    -0.25101   -32.98722   -31.88793
  Fock        0.00000     0.00000     0.00000     0.00000     0.00000     0.00000
  -------------------------------------------------------------------------------------
  Total      -7.91672    -8.16236     0.60886     1.07105    -1.13688     0.04855
  in kB      -4.91636    -5.06891     0.37811     0.66513    -0.70601     0.03015
  external pressure =       -3.20 kB  Pullay stress =        0.00 kB


 VOLUME and BASIS-vectors are now :
 -----------------------------------------------------------------------------
  energy-cutoff  :      520.00
  volume of cell :     2579.96
      direct lattice vectors                 reciprocal lattice vectors
     9.555752754  0.000000000  0.000000000     0.104649003  0.060419130  0.000000000
    -4.777876377  8.275524637  0.000000000     0.000000000  0.120838260  0.000000000
     0.000000000  0.000000000 32.625095367     0.000000000  0.000000000  0.030651251

  length of vectors
     9.555752754  9.555752754 32.625095367     0.120838260  0.120838260  0.030651251


 FORCES acting on ions
    electron-ion (+dipol)            ewald-force                    non-local-force                 convergence-correction
 -----------------------------------------------------------------------------------------------
   0.556E-01 -.463E-01 0.122E+03   -.987E-02 -.202E-02 -.122E+03   -.320E-01 0.255E-01 -.804E+00   0.271E-05 0.130E-05 -.345E-03
   0.363E+00 -.119E+00 0.566E+02   -.276E+00 0.855E-01 -.567E+02   -.714E-01 0.323E-01 0.987E-01   0.152E-05 -.472E-05 -.206E-02
   0.188E+01 -.310E+01 0.175E+00   -.181E+01 0.308E+01 -.773E+00   -.694E-01 0.159E-01 0.589E+00   -.338E-05 -.108E-04 -.257E-03
   -.547E-01 -.602E-02 0.123E+03   -.998E-02 -.347E-02 -.122E+03   0.169E-01 -.187E-02 -.874E+00   -.144E-05 0.416E-06 -.347E-03
   0.135E+00 0.244E-01 0.567E+02   -.831E-01 -.480E-01 -.568E+02   -.526E-01 0.293E-01 0.939E-01   0.162E-05 0.494E-05 -.206E-02
   -.454E+01 -.330E+01 -.132E+02   0.442E+01 0.327E+01 0.130E+02   0.110E+00 0.310E-01 0.188E+00   0.106E-05 0.934E-05 -.558E-03
   0.190E-01 0.696E-01 0.123E+03   -.390E-02 -.843E-02 -.122E+03   0.104E-01 -.307E-01 -.868E+00   0.521E-05 0.193E-05 -.343E-03
   -.101E+00 0.272E+00 0.566E+02   0.616E-01 -.212E+00 -.568E+02   0.363E-01 -.448E-01 0.123E+00   0.327E-05 0.339E-05 -.206E-02
   -.561E+01 0.817E+00 -.127E+02   0.618E+01 -.392E+00 0.120E+02   -.556E+00 -.395E+00 0.705E+00   -.145E-04 -.925E-05 -.561E-03
   -.571E-01 -.479E-01 0.123E+03   0.591E-02 0.114E-02 -.122E+03   0.334E-01 0.257E-01 -.854E+00   -.710E-08 -.364E-05 -.343E-03
   -.187E+00 -.879E-01 0.568E+02   0.137E+00 0.238E-01 -.569E+02   0.369E-01 0.602E-01 0.154E+00   0.425E-05 -.624E-05 -.206E-02
   0.551E+00 0.446E+00 -.363E+01   -.703E+00 -.524E+00 0.313E+01   0.130E+00 0.841E-01 0.495E+00   0.729E-05 0.710E-05 -.612E-03
   0.421E-01 0.102E-01 0.123E+03   0.859E-03 0.426E-02 -.122E+03   -.312E-01 -.141E-01 -.858E+00   -.197E-05 -.763E-05 -.349E-03
   0.245E+00 -.524E-02 0.572E+02   -.212E+00 -.461E-01 -.572E+02   -.246E-01 0.365E-01 0.638E-01   0.118E-05 0.314E-05 -.206E-02
   0.713E+01 0.402E+01 -.156E+02   -.723E+01 -.484E+01 0.149E+02   0.101E+00 0.824E+00 0.741E+00   0.169E-04 0.399E-04 -.527E-03
   -.592E-01 0.189E-02 0.122E+03   0.228E-02 -.301E-03 -.122E+03   0.362E-01 -.282E-03 -.771E+00   -.852E-05 0.510E-05 -.345E-03
   -.456E-01 0.967E-01 0.570E+02   -.308E-01 -.365E-01 -.570E+02   0.621E-01 -.456E-01 0.191E-01   0.698E-06 0.667E-05 -.206E-02
   0.557E+01 0.617E+01 -.359E+01   -.591E+01 -.597E+01 0.319E+01   0.336E+00 -.195E+00 0.399E+00   0.332E-04 -.227E-04 -.250E-03
   -.144E-02 0.691E-01 0.122E+03   0.401E-02 0.586E-02 -.122E+03   0.381E-02 -.270E-01 -.867E+00   -.272E-05 0.168E-05 -.346E-03
   -.225E+00 -.655E-01 0.564E+02   0.163E+00 0.678E-01 -.566E+02   0.595E-01 -.770E-02 0.158E+00   -.591E-05 -.970E-05 -.206E-02
   -.151E+01 0.199E+01 -.126E+02   0.166E+01 -.211E+01 0.124E+02   -.133E+00 0.129E+00 0.291E+00   -.442E-05 -.771E-05 -.530E-03
   0.655E-01 -.692E-01 0.122E+03   0.924E-02 0.632E-03 -.122E+03   -.322E-01 0.325E-01 -.795E+00   0.355E-05 -.350E-05 -.343E-03
   -.272E+00 0.821E-01 0.569E+02   0.270E+00 -.627E-01 -.570E+02   0.166E-02 -.203E-02 0.813E-01   -.284E-05 0.417E-06 -.206E-02
   -.126E+02 0.157E+02 0.817E+01   0.126E+02 -.156E+02 -.854E+01   -.609E-01 -.908E-01 0.394E+00   -.243E-04 0.199E-04 -.203E-03
   -.550E-01 0.992E-02 0.122E+03   0.160E-02 0.201E-02 -.122E+03   0.411E-01 0.287E-02 -.774E+00   0.312E-05 0.404E-05 -.348E-03
   0.309E-01 -.203E+00 0.571E+02   -.112E-01 0.234E+00 -.571E+02   -.534E-02 -.301E-01 -.872E-02   -.386E-05 0.178E-05 -.205E-02
   0.133E+02 -.208E+02 0.306E+01   -.129E+02 0.209E+02 -.273E+01   -.377E+00 -.649E-01 -.337E+00   -.149E-04 -.302E-04 -.419E-03
   0.130E+00 0.493E-01 0.901E+02   -.905E-01 -.462E-01 -.900E+02   -.313E-01 -.576E-02 -.265E-01   0.320E-07 -.597E-05 -.158E-02
   0.550E+00 0.362E+00 0.228E+02   -.596E+00 -.277E+00 -.230E+02   0.463E-01 -.962E-01 0.160E+00   -.239E-05 -.538E-06 -.163E-02
   0.824E-01 -.466E-02 0.900E+02   -.289E-01 -.197E-01 -.900E+02   -.409E-01 0.456E-01 -.317E-01   0.110E-05 0.888E-05 -.158E-02
   -.542E+00 0.268E+00 0.231E+02   0.559E+00 -.281E+00 -.232E+02   -.181E-01 0.273E-01 0.119E+00   0.502E-05 0.739E-05 -.163E-02
   0.690E-01 -.252E-01 0.900E+02   -.666E-01 -.891E-02 -.900E+02   -.205E-01 0.369E-01 -.646E-01   0.483E-05 0.597E-06 -.158E-02
   0.402E+00 -.317E+00 0.248E+02   -.339E+00 0.321E+00 -.248E+02   -.606E-01 0.929E-02 0.589E-02   0.220E-05 -.474E-05 -.165E-02
   -.186E+00 -.600E-01 0.901E+02   0.119E+00 0.565E-01 -.900E+02   0.568E-01 0.311E-01 -.474E-01   0.554E-05 -.819E-05 -.158E-02
   -.117E+00 0.810E+00 0.249E+02   0.188E-01 -.832E+00 -.252E+02   0.908E-01 0.296E-01 0.238E+00   0.106E-04 0.542E-05 -.163E-02
   -.759E-04 -.961E-01 0.900E+02   0.938E-02 0.715E-01 -.899E+02   -.594E-02 0.262E-01 -.779E-01   -.706E-05 0.557E-05 -.158E-02
   0.185E+01 -.443E+00 0.254E+02   -.173E+01 0.319E+00 -.256E+02   -.124E+00 0.133E+00 0.289E+00   0.134E-05 0.973E-05 -.165E-02
   -.767E-01 -.236E-01 0.901E+02   0.725E-01 0.136E-01 -.900E+02   0.246E-02 -.785E-02 -.391E-01   -.628E-05 -.180E-05 -.158E-02
   -.148E+00 0.455E+00 0.235E+02   0.224E+00 -.423E+00 -.237E+02   -.847E-01 -.375E-01 0.135E+00   0.187E-05 -.689E-05 -.162E-02
   0.662E-01 0.152E-01 0.899E+02   -.458E-01 0.125E-01 -.899E+02   -.271E-01 -.124E-01 -.432E-01   -.560E-05 -.720E-06 -.158E-02
   -.456E+00 0.783E-01 0.242E+02   0.608E+00 -.143E+00 -.243E+02   -.152E+00 0.717E-01 0.654E-01   -.871E-05 0.898E-06 -.163E-02
   -.389E-01 0.755E-01 0.900E+02   0.242E-01 -.628E-01 -.900E+02   0.929E-02 -.835E-02 0.351E-01   0.609E-05 -.197E-05 -.158E-02
   -.140E+01 0.989E-01 0.254E+02   0.135E+01 -.472E-01 -.253E+02   0.664E-01 -.502E-01 -.517E-01   -.712E-05 -.471E-05 -.160E-02
   0.762E-02 -.646E-01 0.900E+02   -.177E-01 0.399E-01 -.899E+02   0.216E-01 0.193E-01 -.436E-02   0.140E-05 0.363E-05 -.158E-02
   -.188E+00 -.144E+01 0.230E+02   0.102E+00 0.146E+01 -.231E+02   0.853E-01 -.135E-01 0.136E+00   -.381E-05 -.720E-05 -.160E-02
   0.196E+02 0.438E+02 -.265E+03   -.284E+02 -.671E+02 0.238E+03   0.877E+01 0.233E+02 0.275E+02   -.214E-04 -.508E-04 0.174E-02
   0.302E+02 0.386E+02 -.423E+03   -.389E+02 -.613E+02 0.457E+03   0.871E+01 0.227E+02 -.341E+02   0.213E-04 0.186E-05 0.215E-02
   -.851E+01 0.911E+01 -.420E+03   -.378E+01 -.378E+02 0.450E+03   0.123E+02 0.287E+02 -.293E+02   -.218E-04 -.504E-04 0.228E-02
   0.332E+02 0.289E+02 -.319E+03   -.521E+02 -.596E+02 0.303E+03   0.189E+02 0.307E+02 0.160E+02   -.911E-04 0.635E-04 0.178E-02
   0.406E+02 -.269E+02 -.178E+03   -.604E+02 0.856E+01 0.168E+03   0.198E+02 0.183E+02 0.992E+01   -.236E-03 -.850E-04 0.823E-03
   -.967E+01 0.890E+02 -.282E+03   -.751E+01 -.118E+03 0.263E+03   0.172E+02 0.286E+02 0.195E+02   0.694E-04 -.151E-03 0.170E-02
   0.409E+02 -.352E+02 -.951E+02   -.463E+02 0.398E+02 0.987E+02   0.536E+01 -.457E+01 -.364E+01   -.163E-05 -.287E-05 0.339E-03
   -.562E+02 -.356E+01 -.969E+02   0.633E+02 0.372E+01 0.101E+03   -.717E+01 -.164E+00 -.371E+01   0.135E-05 0.110E-05 0.338E-03
   -.265E+02 -.596E+02 -.600E+02   0.302E+02 0.666E+02 0.597E+02   -.366E+01 -.703E+01 0.330E+00   -.152E-05 0.397E-05 0.338E-03
   0.218E+02 0.201E+02 0.337E+02   -.237E+02 -.218E+02 -.407E+02   0.191E+01 0.172E+01 0.695E+01   0.293E-05 0.249E-05 0.268E-03
   -.401E+02 -.794E+02 -.717E+02   0.436E+02 0.867E+02 0.725E+02   -.356E+01 -.727E+01 -.760E+00   0.692E-05 0.879E-05 0.369E-03
   0.591E+01 0.781E+01 0.348E+02   -.685E+01 -.879E+01 -.419E+02   0.942E+00 0.976E+00 0.709E+01   -.269E-05 -.408E-05 0.276E-03
   0.342E+02 -.655E+02 -.766E+02   -.372E+02 0.726E+02 0.771E+02   0.303E+01 -.714E+01 -.486E+00   -.197E-04 0.137E-04 0.304E-03
   -.602E+02 -.897E+00 -.994E+02   0.674E+02 0.442E+00 0.103E+03   -.715E+01 0.423E+00 -.352E+01   -.587E-05 0.540E-05 0.345E-03
   -.473E+02 -.534E+02 -.845E+02   0.520E+02 0.583E+02 0.885E+02   -.465E+01 -.492E+01 -.407E+01   -.117E-04 0.436E-05 0.235E-03
   0.494E+01 0.348E+01 -.138E+02   -.487E+01 -.358E+01 0.141E+02   -.778E-01 0.106E+00 -.361E+00   0.130E-04 0.220E-05 -.101E-03
   0.268E+02 -.380E+02 -.861E+02   -.310E+02 0.437E+02 0.890E+02   0.417E+01 -.576E+01 -.289E+01   0.978E-05 -.136E-04 0.325E-03
   -.803E+02 0.111E+01 -.870E+02   0.880E+02 -.712E+00 0.898E+02   -.775E+01 -.374E+00 -.281E+01   0.178E-04 -.214E-04 0.318E-03
 -----------------------------------------------------------------------------------------------
   -.664E+02 -.119E+03 0.783E+00   -.995E-13 -.711E-14 0.455E-12   0.664E+02 0.119E+03 -.760E+00   -.275E-03 -.278E-03 -.406E-01
 
 
 POSITION                                       TOTAL-FORCE (eV/Angst)
 -----------------------------------------------------------------------------------
      0.00000      0.00000      0.00000         0.013809     -0.022905      0.003093
      9.53981      0.01381      5.16064         0.016086     -0.000863      0.004508
     -0.02996      0.07554     10.77817        -0.001355     -0.008773     -0.008441
     -1.59263      2.75851      0.00000        -0.047839     -0.011460     -0.029270
     -1.59951      2.77504      5.14020        -0.001073      0.005645     -0.009652
      7.82063      2.84071     10.19258        -0.016870      0.002289      0.020250
     -3.18525      5.51702      0.00000         0.025561      0.030342     -0.019165
     -3.19506      5.53841      5.14940        -0.003265      0.014893     -0.003693
     -3.11129      5.68527     10.17282         0.014596      0.029888     -0.010768
      3.18525      0.00000      0.00000        -0.017812     -0.021097     -0.018786
      3.18674      0.01464      5.12850        -0.013418     -0.004031      0.000347
      3.13538      0.14055     10.08994        -0.022587      0.005404     -0.003329
      1.59263      2.75851      0.00000         0.011724      0.000234     -0.022148
      1.57727      2.75619      5.12559         0.008410     -0.014926     -0.018128
      1.44784      2.75153     10.18201         0.008355      0.009756      0.003324
     -0.00000      5.51702      0.00000        -0.020707      0.001203     -0.019337
     -0.01519      5.54383      5.14965        -0.014359      0.014455      0.000187
     -0.15110      5.66285     10.77121        -0.006434     -0.000293     -0.002236
      6.37050      0.00000      0.00000         0.006380      0.047777     -0.023990
      6.36402      0.00054      5.14892        -0.003187     -0.005565     -0.001251
      6.35144      0.11916     10.24844         0.012169      0.012588      0.018771
      4.77788      2.75851      0.00000         0.042498     -0.036171     -0.020553
      4.76636      2.78561      5.17508        -0.000437      0.017278     -0.007182
      4.71042      2.84542     10.88633        -0.003948      0.005866      0.028173
      3.18525      5.51702      0.00000        -0.012252      0.014701     -0.052879
      3.20296      5.53750      5.15100         0.014383     -0.000085     -0.015437
      3.06933      5.61052     10.41083        -0.015572      0.020089     -0.009103
      0.00000      1.83901      2.60418         0.008416     -0.002828      0.020558
     -0.05476      1.84062      7.71720         0.001089     -0.011122      0.005108
     -1.59263      4.59751      2.60418         0.012609      0.021192      0.027236
     -1.55645      4.63604      7.70476        -0.000374      0.014099      0.005495
     -3.18525      7.35602      2.60418        -0.018046      0.002639     -0.032295
     -3.21601      7.41772      7.65605         0.002982      0.013381      0.018999
      3.18525      1.83901      2.60418        -0.010271      0.027512      0.039172
      3.17710      1.93853      7.70238        -0.006999      0.007888     -0.000401
      1.59263      4.59751      2.60418         0.003367      0.001571      0.011953
      1.60574      4.63063      7.62682         0.000088      0.009934      0.004617
      0.00000      7.35602      2.60418        -0.001667     -0.017878      0.025478
      0.00034      7.34091      7.74195        -0.008466     -0.005454      0.000444
      6.37050      1.83901      2.60418        -0.006719      0.015184     -0.006637
      6.32221      1.86032      7.68117        -0.000203      0.006629      0.002770
      4.77788      4.59751      2.60418        -0.005331      0.004216      0.077382
      4.76792      4.60881      7.80253         0.009947      0.001363     -0.021227
      3.18525      7.35602      2.60418         0.011520     -0.005519      0.035325
      3.19936      7.35982      7.80611        -0.000120      0.011874     -0.002778
      0.01285      0.01137     12.92697        -0.002269      0.003898      0.009112
     -1.80105      7.98839     13.46177        -0.005410     -0.007050      0.029568
      7.38588      1.82858     13.57236        -0.012493      0.003749      0.034558
      4.48129      2.23120     13.06708         0.013944     -0.046095      0.051274
      3.98322      4.56081     11.87343         0.019017     -0.058040     -0.072201
     -0.00773      5.86527     12.89717        -0.019824     -0.001767      0.015207
      8.92045      0.59219     13.39578        -0.004489      0.003580     -0.002581
      0.87907      0.05235     13.39337         0.002589     -0.001823     -0.006723
      3.43146      0.58943     13.39761        -0.000603     -0.012372      0.003358
     -2.04330      7.78291     12.51657        -0.016499     -0.008524     -0.015635
      7.81512      2.70726     13.64342        -0.010411      0.006977     -0.007952
      7.26792      1.71878     12.58116         0.002686      0.004106     -0.025700
      4.11914      3.15310     13.14572         0.008384     -0.041116      0.041467
      5.36436      2.20876     13.50803         0.029056     -0.032563      0.010253
      4.56859      5.16921     12.37146         0.060637     -0.036641     -0.062825
      1.43781      4.59199     10.78340        -0.000486      0.000967      0.009728
     -0.52559      6.62618     13.27893        -0.024323     -0.000077     -0.003453
      0.90530      5.93168     13.23940        -0.004184      0.021869     -0.001962
 -----------------------------------------------------------------------------------
    total drift:                               -0.000661      0.006539     -0.018124


--------------------------------------------------------------------------------------------------------



  FREE ENERGIE OF THE ION-ELECTRON SYSTEM (eV)
  ---------------------------------------------------
  free  energy   TOTEN  =       -69.08378019 eV

  energy  without entropy=      -69.08378019  energy(sigma->0) =      -69.08378019
 


--------------------------------------------------------------------------------------------------------


    POTLOK:  cpu time    9.7291: real time    9.7305


--------------------------------------------------------------------------------------------------------


 stress matrix after NEB project (eV)
     -7.91672      1.07105      0.04855
      1.07105     -8.16236     -1.13688
      0.04855     -1.13688      0.60886
  FORCES: max atom, RMS     0.094691    0.026476
  FORCE total and by dimension    0.210150    0.072201
  Stress total and by dimension   11.599711    8.162361
     LOOP+:  cpu time  460.2031: real time  461.6546
 vacuum level on the upper side and lower side of the slab         2.224         3.189
    4ORBIT:  cpu time    0.0000: real time    0.0000
 BZINTS: Fermi energy: -0.625440;138.000000 electrons
         Band energy:-874.972339;  BLOECHL correction: -0.098911

 total amount of memory used by VASP MPI-rank0    62208. kBytes
=======================================================================

   base      :      30000. kBytes
   nonlr-proj:       6305. kBytes
   fftplans  :       6459. kBytes
   grid      :      11407. kBytes
   one-center:         24. kBytes
   wavefun   :       8013. kBytes
 
  
  
 General timing and accounting informations for this job:
 ========================================================
  
                  Total CPU time used (sec):      517.136
                            User time (sec):      508.459
                          System time (sec):        8.678
                         Elapsed time (sec):      527.029
  
                   Maximum memory used (kb):      271576.
                   Average memory used (kb):           0.
  
                          Minor page faults:       238625
                          Major page faults:            0
                 Voluntary context switches:        48371
