 running on   72 total cores
 distrk:  each k-point on   72 cores,    1 groups
 distr:  one band on   24 cores,    3 groups
 using from now: INCAR     
 vasp.5.4.4.18Apr17-6-g9f103f2a35 (build Jun 08 2018 12:06:12) complex          
  
 POSCAR found type information on POSCAR  Mg O  H 
 POSCAR found :  3 types and      63 ions
 scaLAPACK will be used

 ----------------------------------------------------------------------------- 
|                                                                             |
|           W    W    AA    RRRRR   N    N  II  N    N   GGGG   !!!           |
|           W    W   A  A   R    R  NN   N  II  NN   N  G    G  !!!           |
|           W    W  A    A  R    R  N N  N  II  N N  N  G       !!!           |
|           W WW W  AAAAAA  RRRRR   N  N N  II  N  N N  G  GGG   !            |
|           WW  WW  A    A  R   R   N   NN  II  N   NN  G    G                |
|           W    W  A    A  R    R  N    N  II  N    N   GGGG   !!!           |
|                                                                             |
|      For optimal performance we recommend to set                            |
|        NCORE= 4 - approx SQRT( number of cores)                             |
|      NCORE specifies how many cores store one orbital (NPAR=cpu/NCORE).     |
|      This setting can  greatly improve the performance of VASP for DFT.     |
|      The default,   NCORE=1            might be grossly inefficient         |
|      on modern multi-core architectures or massively parallel machines.     |
|      Do your own testing !!!!                                               |
|      Unfortunately you need to use the default for GW and RPA calculations. |
|      (for HF NCORE is supported but not extensively tested yet)             |
|                                                                             |
 ----------------------------------------------------------------------------- 


 ----------------------------------------------------------------------------- 
|                                                                             |
|  ADVICE TO THIS USER RUNNING 'VASP/VAMP'   (HEAR YOUR MASTER'S VOICE ...):  |
|                                                                             |
|      You have switched on vdW-DFT.                                          |
|      This routine was written and supplied by Jiri Klimes.                  |
|      We recommed that you carefully read and cite the following             |
|      publication                                                            |
|      J. Klimes, D.R. Bowler, A. Michelides                                  |
|        J. Phys.: Cond Matt. 22 022201 (2010)                                |
|      J. Klimes, D.R. Bowler, A. Michelides                                  |
|        Phys. Rev. B. 83, 195131 (2011)                                      |
|      and references therein.                                                |
|                                                                             |
 ----------------------------------------------------------------------------- 


 ----------------------------------------------------------------------------- 
|                                                                             |
|  ADVICE TO THIS USER RUNNING 'VASP/VAMP'   (HEAR YOUR MASTER'S VOICE ...):  |
|                                                                             |
|      You enforced a specific xc-type in the INCAR file,                     |
|      a different type was found on the POTCAR file                          |
|          I HOPE YOU KNOW, WHAT YOU ARE  DOING                               |
|                                                                             |
 ----------------------------------------------------------------------------- 

 LDA part: xc-table for Pade appr. of Perdew
 POSCAR found type information on POSCAR  Mg O  H 
 POSCAR found :  3 types and      63 ions
 POSCAR, INCAR and KPOINTS ok, starting setup
 FFT: planning ...
 WAVECAR not read
 augmentation electrons   138.063804626819     
 soft         electrons  0.000000000000000E+000
 augmentation electrons   138.063804626819     
 soft         electrons  0.000000000000000E+000
 augmentation electrons   138.063804626819     
 soft         electrons  0.000000000000000E+000
 augmentation electrons   138.063804626819     
 soft         electrons  0.000000000000000E+000
 augmentation electrons   138.063804626819     
 soft         electrons  0.000000000000000E+000
 augmentation electrons   138.063804626819     
 soft         electrons  0.000000000000000E+000
 augmentation electrons   138.063804626819     
 soft         electrons  0.000000000000000E+000
 augmentation electrons   138.063804626819     
 soft         electrons  0.000000000000000E+000
 augmentation electrons   138.063804626819     
 soft         electrons  0.000000000000000E+000
 augmentation electrons   138.063804626819     
 soft         electrons  0.000000000000000E+000
 augmentation electrons   138.063804626819     
 soft         electrons  0.000000000000000E+000
 augmentation electrons   138.063804626819     
 soft         electrons  0.000000000000000E+000
 augmentation electrons   138.063804626819     
 soft         electrons  0.000000000000000E+000
 augmentation electrons   138.063804626819     
 soft         electrons  0.000000000000000E+000
 augmentation electrons   138.063804626819     
 soft         electrons  0.000000000000000E+000
 augmentation electrons   138.063804626819     
 soft         electrons  0.000000000000000E+000
 augmentation electrons   138.063804626819     
 soft         electrons  0.000000000000000E+000
 augmentation electrons   138.063804626819     
 soft         electrons  0.000000000000000E+000
 augmentation electrons   138.063804626819     
 soft         electrons  0.000000000000000E+000
 augmentation electrons   138.063804626819     
 soft         electrons  0.000000000000000E+000
 augmentation electrons   138.063804626819     
 soft         electrons  0.000000000000000E+000
 augmentation electrons   138.063804626819     
 soft         electrons  0.000000000000000E+000
 augmentation electrons   138.063804626819     
 soft         electrons  0.000000000000000E+000
 augmentation electrons   138.063804626819     
 soft         electrons  0.000000000000000E+000
 augmentation electrons   138.063804626819     
 soft         electrons  0.000000000000000E+000
 augmentation electrons   138.063804626819     
 soft         electrons  0.000000000000000E+000
 augmentation electrons   138.063804626819     
 soft         electrons  0.000000000000000E+000
 augmentation electrons   138.063804626819     
 soft         electrons  0.000000000000000E+000
 augmentation electrons   138.063804626819     
 soft         electrons  0.000000000000000E+000
 augmentation electrons   138.063804626819     
 soft         electrons  0.000000000000000E+000
 augmentation electrons   138.063804626819     
 soft         electrons  0.000000000000000E+000
 augmentation electrons   138.063804626819     
 soft         electrons  0.000000000000000E+000
 augmentation electrons   138.063804626819     
 soft         electrons  0.000000000000000E+000
 augmentation electrons   138.063804626819     
 soft         electrons  0.000000000000000E+000
 augmentation electrons   138.063804626819     
 soft         electrons  0.000000000000000E+000
 augmentation electrons   138.063804626819     
 soft         electrons  0.000000000000000E+000
 augmentation electrons   138.063804626819     
 soft         electrons  0.000000000000000E+000
 augmentation electrons   138.063804626819     
 soft         electrons  0.000000000000000E+000
 augmentation electrons   138.063804626819     
 soft         electrons  0.000000000000000E+000
 augmentation electrons   138.063804626819     
 soft         electrons  0.000000000000000E+000
 augmentation electrons   138.063804626819     
 soft         electrons  0.000000000000000E+000
 augmentation electrons   138.063804626819     
 soft         electrons  0.000000000000000E+000
 augmentation electrons   138.063804626819     
 soft         electrons  0.000000000000000E+000
 augmentation electrons   138.063804626819     
 soft         electrons  0.000000000000000E+000
 augmentation electrons   138.063804626819     
 soft         electrons  0.000000000000000E+000
 augmentation electrons   138.063804626819     
 soft         electrons  0.000000000000000E+000
 augmentation electrons   138.063804626819     
 soft         electrons  0.000000000000000E+000
 augmentation electrons   138.063804626819     
 soft         electrons  0.000000000000000E+000
 augmentation electrons   138.063804626819     
 soft         electrons  0.000000000000000E+000
 augmentation electrons   138.063804626819     
 soft         electrons  0.000000000000000E+000
 augmentation electrons   138.063804626819     
 soft         electrons  0.000000000000000E+000
 augmentation electrons   138.063804626819     
 soft         electrons  0.000000000000000E+000
 augmentation electrons   138.063804626819     
 soft         electrons  0.000000000000000E+000
 augmentation electrons   138.063804626819     
 soft         electrons  0.000000000000000E+000
 augmentation electrons   138.063804626819     
 soft         electrons  0.000000000000000E+000
 augmentation electrons   138.063804626819     
 soft         electrons  0.000000000000000E+000
 augmentation electrons   138.063804626819     
 soft         electrons  0.000000000000000E+000
 augmentation electrons   138.063804626819     
 soft         electrons  0.000000000000000E+000
 total        electrons   138.063804626819     
 augmentation electrons   138.063804626819     
 soft         electrons  0.000000000000000E+000
 augmentation electrons   138.063804626819     
 soft         electrons  0.000000000000000E+000
 total        electrons   138.063804626819     
 augmentation electrons   138.063804626819     
 soft         electrons  0.000000000000000E+000
 augmentation electrons   138.063804626819     
 soft         electrons  0.000000000000000E+000
 total        electrons   138.063804626819     
 augmentation electrons   138.063804626819     
 soft         electrons  0.000000000000000E+000
 augmentation electrons   138.063804626819     
 soft         electrons  0.000000000000000E+000
 total        electrons   138.063804626819     
 augmentation electrons   138.063804626819     
 soft         electrons  0.000000000000000E+000
 augmentation electrons   138.063804626819     
 soft         electrons  0.000000000000000E+000
 total        electrons   138.063804626819     
 augmentation electrons   138.063804626819     
 soft         electrons  0.000000000000000E+000
 augmentation electrons   138.063804626819     
 total        electrons   138.063804626819     
 augmentation electrons   138.063804626819     
 soft         electrons  0.000000000000000E+000
 soft         electrons  0.000000000000000E+000
 total        electrons   138.063804626819     
 augmentation electrons   138.063804626819     
 soft         electrons  0.000000000000000E+000
 total        electrons   138.063804626819     
 total        electrons   138.063804626819     
 augmentation electrons   138.063804626819     
 total        electrons   138.063804626819     
 total        electrons   138.063804626819     
 augmentation electrons   138.063804626819     
 soft         electrons  0.000000000000000E+000
 total        electrons   138.063804626819     
 total        electrons   138.063804626819     
 soft         electrons  0.000000000000000E+000
 total        electrons   138.063804626819     
 total        electrons   138.063804626819     
 total        electrons   138.063804626819     
 total        electrons   138.063804626819     
 total        electrons   138.063804626819     
 total        electrons   138.063804626819     
 total        electrons   138.063804626819     
 total        electrons   138.063804626819     
 total        electrons   138.063804626819     
 total        electrons   138.063804626819     
 total        electrons   138.063804626819     
 total        electrons   138.063804626819     
 total        electrons   138.063804626819     
 total        electrons   138.063804626819     
 total        electrons   138.063804626819     
 total        electrons   138.063804626819     
 total        electrons   138.063804626819     
 total        electrons   138.063804626819     
 total        electrons   138.063804626819     
 total        electrons   138.063804626819     
 total        electrons   138.063804626819     
 total        electrons   138.063804626819     
 total        electrons   138.063804626819     
 total        electrons   138.063804626819     
 total        electrons   138.063804626819     
 total        electrons   138.063804626819     
 total        electrons   138.063804626819     
 total        electrons   138.063804626819     
 total        electrons   138.063804626819     
 total        electrons   138.063804626819     
 total        electrons   138.063804626819     
 total        electrons   138.063804626819     
 total        electrons   138.063804626819     
 total        electrons   138.063804626819     
 total        electrons   138.063804626819     
 total        electrons   138.063804626819     
 total        electrons   138.063804626819     
 total        electrons   138.063804626819     
 total        electrons   138.063804626819     
 total        electrons   138.063804626819     
 total        electrons   138.063804626819     
 total        electrons   138.063804626819     
 total        electrons   138.063804626819     
 total        electrons   138.063804626819     
 total        electrons   138.063804626819     
 total        electrons   138.063804626819     
 total        electrons   138.063804626819     
 total        electrons   138.063804626819     
 total        electrons   138.063804626819     
 total        electrons   138.063804626819     
 total        electrons   138.063804626819     
 total        electrons   138.063804626819     
 total        electrons   138.063804626819     
 total        electrons   138.063804626819     
 total        electrons   138.063804626819     
 total        electrons   138.063804626819     
 total        electrons   138.063804626819     
 total        electrons   138.063804626819     
 total        electrons   138.063804626819     
 augmentation electrons   481.250473506358     
 soft         electrons  0.000000000000000E+000
 augmentation electrons   481.250473506358     
 soft         electrons  0.000000000000000E+000
 augmentation electrons   481.250473506358     
 soft         electrons  0.000000000000000E+000
 augmentation electrons   481.250473506358     
 soft         electrons  0.000000000000000E+000
 augmentation electrons   481.250473506358     
 soft         electrons  0.000000000000000E+000
 augmentation electrons   481.250473506358     
 soft         electrons  0.000000000000000E+000
 augmentation electrons   481.250473506358     
 soft         electrons  0.000000000000000E+000
 augmentation electrons   481.250473506358     
 soft         electrons  0.000000000000000E+000
 augmentation electrons   481.250473506358     
 soft         electrons  0.000000000000000E+000
 augmentation electrons   481.250473506358     
 soft         electrons  0.000000000000000E+000
 augmentation electrons   481.250473506358     
 soft         electrons  0.000000000000000E+000
 augmentation electrons   481.250473506358     
 soft         electrons  0.000000000000000E+000
 augmentation electrons   481.250473506358     
 soft         electrons  0.000000000000000E+000
 augmentation electrons   481.250473506358     
 soft         electrons  0.000000000000000E+000
 augmentation electrons   481.250473506358     
 soft         electrons  0.000000000000000E+000
 augmentation electrons   481.250473506358     
 soft         electrons  0.000000000000000E+000
 augmentation electrons   481.250473506358     
 soft         electrons  0.000000000000000E+000
 augmentation electrons   481.250473506358     
 soft         electrons  0.000000000000000E+000
 augmentation electrons   481.250473506358     
 soft         electrons  0.000000000000000E+000
 total        electrons   481.250473506358     
 augmentation electrons   481.250473506358     
 soft         electrons  0.000000000000000E+000
 augmentation electrons   481.250473506358     
 soft         electrons  0.000000000000000E+000
 augmentation electrons   481.250473506358     
 soft         electrons  0.000000000000000E+000
 total        electrons   481.250473506358     
 augmentation electrons   481.250473506358     
 soft         electrons  0.000000000000000E+000
 augmentation electrons   481.250473506358     
 soft         electrons  0.000000000000000E+000
 augmentation electrons   481.250473506358     
 soft         electrons  0.000000000000000E+000
 total        electrons   481.250473506358     
 augmentation electrons   481.250473506358     
 soft         electrons  0.000000000000000E+000
 augmentation electrons   481.250473506358     
 soft         electrons  0.000000000000000E+000
 augmentation electrons   481.250473506358     
 soft         electrons  0.000000000000000E+000
 total        electrons   481.250473506358     
 augmentation electrons   481.250473506358     
 soft         electrons  0.000000000000000E+000
 augmentation electrons   481.250473506358     
 soft         electrons  0.000000000000000E+000
 augmentation electrons   481.250473506358     
 soft         electrons  0.000000000000000E+000
 total        electrons   481.250473506358     
 augmentation electrons   481.250473506358     
 soft         electrons  0.000000000000000E+000
 augmentation electrons   481.250473506358     
 soft         electrons  0.000000000000000E+000
 augmentation electrons   481.250473506358     
 soft         electrons  0.000000000000000E+000
 total        electrons   481.250473506358     
 augmentation electrons   481.250473506358     
 soft         electrons  0.000000000000000E+000
 augmentation electrons   481.250473506358     
 soft         electrons  0.000000000000000E+000
 augmentation electrons   481.250473506358     
 soft         electrons  0.000000000000000E+000
 total        electrons   481.250473506358     
 augmentation electrons   481.250473506358     
 soft         electrons  0.000000000000000E+000
 augmentation electrons   481.250473506358     
 soft         electrons  0.000000000000000E+000
 augmentation electrons   481.250473506358     
 soft         electrons  0.000000000000000E+000
 total        electrons   481.250473506358     
 augmentation electrons   481.250473506358     
 soft         electrons  0.000000000000000E+000
 augmentation electrons   481.250473506358     
 augmentation electrons   481.250473506358     
 soft         electrons  0.000000000000000E+000
 total        electrons   481.250473506358     
 augmentation electrons   481.250473506358     
 soft         electrons  0.000000000000000E+000
 augmentation electrons   481.250473506358     
 soft         electrons  0.000000000000000E+000
 augmentation electrons   481.250473506358     
 soft         electrons  0.000000000000000E+000
 total        electrons   481.250473506358     
 augmentation electrons   481.250473506358     
 soft         electrons  0.000000000000000E+000
 augmentation electrons   481.250473506358     
 soft         electrons  0.000000000000000E+000
 augmentation electrons   481.250473506358     
 soft         electrons  0.000000000000000E+000
 total        electrons   481.250473506358     
 augmentation electrons   481.250473506358     
 soft         electrons  0.000000000000000E+000
 augmentation electrons   481.250473506358     
 soft         electrons  0.000000000000000E+000
 augmentation electrons   481.250473506358     
 soft         electrons  0.000000000000000E+000
 total        electrons   481.250473506358     
 augmentation electrons   481.250473506358     
 soft         electrons  0.000000000000000E+000
 augmentation electrons   481.250473506358     
 soft         electrons  0.000000000000000E+000
 augmentation electrons   481.250473506358     
 soft         electrons  0.000000000000000E+000
 total        electrons   481.250473506358     
 augmentation electrons   481.250473506358     
 soft         electrons  0.000000000000000E+000
 augmentation electrons   481.250473506358     
 soft         electrons  0.000000000000000E+000
 augmentation electrons   481.250473506358     
 soft         electrons  0.000000000000000E+000
 total        electrons   481.250473506358     
 augmentation electrons   481.250473506358     
 soft         electrons  0.000000000000000E+000
 augmentation electrons   481.250473506358     
 soft         electrons  0.000000000000000E+000
 total        electrons   481.250473506358     
 augmentation electrons   481.250473506358     
 soft         electrons  0.000000000000000E+000
 augmentation electrons   481.250473506358     
 soft         electrons  0.000000000000000E+000
 total        electrons   481.250473506358     
 augmentation electrons   481.250473506358     
 soft         electrons  0.000000000000000E+000
 augmentation electrons   481.250473506358     
 soft         electrons  0.000000000000000E+000
 total        electrons   481.250473506358     
 augmentation electrons   481.250473506358     
 soft         electrons  0.000000000000000E+000
 augmentation electrons   481.250473506358     
 soft         electrons  0.000000000000000E+000
 total        electrons   481.250473506358     
 augmentation electrons   481.250473506358     
 soft         electrons  0.000000000000000E+000
 augmentation electrons   481.250473506358     
 soft         electrons  0.000000000000000E+000
 total        electrons   481.250473506358     
 augmentation electrons   481.250473506358     
 soft         electrons  0.000000000000000E+000
 soft         electrons  0.000000000000000E+000
 total        electrons   481.250473506358     
 augmentation electrons   481.250473506358     
 soft         electrons  0.000000000000000E+000
 total        electrons   481.250473506358     
 augmentation electrons   481.250473506358     
 total        electrons   481.250473506358     
 augmentation electrons   481.250473506358     
 soft         electrons  0.000000000000000E+000
 total        electrons   481.250473506358     
 soft         electrons  0.000000000000000E+000
 total        electrons   481.250473506358     
 total        electrons   481.250473506358     
 total        electrons   481.250473506358     
 total        electrons   481.250473506358     
 total        electrons   481.250473506358     
 total        electrons   481.250473506358     
 total        electrons   481.250473506358     
 total        electrons   481.250473506358     
 total        electrons   481.250473506358     
 total        electrons   481.250473506358     
 total        electrons   481.250473506358     
 total        electrons   481.250473506358     
 total        electrons   481.250473506358     
 total        electrons   481.250473506358     
 total        electrons   481.250473506358     
 total        electrons   481.250473506358     
 total        electrons   481.250473506358     
 total        electrons   481.250473506358     
 total        electrons   481.250473506358     
 total        electrons   481.250473506358     
 total        electrons   481.250473506358     
 total        electrons   481.250473506358     
 total        electrons   481.250473506358     
 total        electrons   481.250473506358     
 total        electrons   481.250473506358     
 total        electrons   481.250473506358     
 total        electrons   481.250473506358     
 total        electrons   481.250473506358     
 total        electrons   481.250473506358     
 total        electrons   481.250473506358     
 total        electrons   481.250473506358     
 total        electrons   481.250473506358     
 total        electrons   481.250473506358     
 total        electrons   481.250473506358     
 total        electrons   481.250473506358     
 total        electrons   481.250473506358     
 total        electrons   481.250473506358     
 total        electrons   481.250473506358     
 total        electrons   481.250473506358     
 total        electrons   481.250473506358     
 total        electrons   481.250473506358     
 total        electrons   481.250473506358     
 total        electrons   481.250473506358     
 total        electrons   481.250473506358     
 total        electrons   481.250473506358     
 total        electrons   481.250473506358     
 total        electrons   481.250473506358     
 total        electrons   481.250473506358     
 total        electrons   481.250473506358     
 entering main loop
       N       E                     dE             d eps       ncg     rms          rms(c)
Total vdW correction in eV:     53.6953418
RMM:   1     0.124518038488E+04    0.12452E+04   -0.27944E+04   510   0.785E+02
RMM:   2     0.546912022109E+03   -0.69827E+03   -0.75808E+03   510   0.166E+02
RMM:   3     0.310940172258E+03   -0.23597E+03   -0.30124E+03   510   0.836E+01
RMM:   4     0.137244076923E+03   -0.17370E+03   -0.14935E+03   510   0.795E+01
RMM:   5     0.201361027454E+02   -0.11711E+03   -0.93329E+02   510   0.646E+01
RMM:   6    -0.439776506432E+02   -0.64114E+02   -0.48465E+02   510   0.462E+01
RMM:   7    -0.709847833850E+02   -0.27007E+02   -0.20287E+02   510   0.266E+01
RMM:   8    -0.781632633729E+02   -0.71785E+01   -0.59394E+01   510   0.140E+01
RMM:   9    -0.804250229011E+02   -0.22618E+01   -0.21598E+01  1456   0.765E+00
RMM:  10    -0.807396634205E+02   -0.31464E+00   -0.32218E+00  1757   0.287E+00
RMM:  11    -0.807385969734E+02    0.10664E-02   -0.16345E-01  1718   0.696E-01
RMM:  12    -0.807411190310E+02   -0.25221E-02   -0.33050E-02  1799   0.286E-01    0.202E+01
Total vdW correction in eV:     53.7569865
RMM:  13    -0.704783656436E+02    0.10263E+02   -0.61670E+01  1424   0.143E+01    0.790E+00
Total vdW correction in eV:     53.7151259
RMM:  14    -0.877348281835E+02   -0.17256E+02   -0.82730E+00  1668   0.342E+00    0.943E+00
Total vdW correction in eV:     53.6998313
RMM:  15    -0.695293368633E+02    0.18205E+02   -0.20693E+00  1416   0.130E+00    0.498E+00
Total vdW correction in eV:     53.6380148
RMM:  16    -0.693077644017E+02    0.22157E+00   -0.12351E+00  1550   0.200E+00    0.223E+00
Total vdW correction in eV:     53.6319395
RMM:  17    -0.691118236314E+02    0.19594E+00   -0.36816E-01  1310   0.117E+00    0.777E-01
Total vdW correction in eV:     53.6385067
RMM:  18    -0.690936545672E+02    0.18169E-01   -0.68523E-02  1581   0.508E-01    0.375E-01
Total vdW correction in eV:     53.6468216
RMM:  19    -0.690961126621E+02   -0.24581E-02   -0.41708E-02  1327   0.394E-01    0.264E-01
Total vdW correction in eV:     53.6514506
RMM:  20    -0.690947964662E+02    0.13162E-02   -0.13831E-02  1545   0.230E-01    0.837E-02
Total vdW correction in eV:     53.6609617
RMM:  21    -0.690924224110E+02    0.23741E-02   -0.20870E-03  1449   0.824E-02    0.389E-02
Total vdW correction in eV:     53.6681224
RMM:  22    -0.690864723271E+02    0.59501E-02   -0.79275E-04  1427   0.449E-02    0.396E-02
Total vdW correction in eV:     53.6740148
RMM:  23    -0.690822670207E+02    0.42053E-02   -0.35793E-04  1271   0.353E-02    0.210E-02
Total vdW correction in eV:     53.6798137
RMM:  24    -0.690834106140E+02   -0.11436E-02   -0.34293E-04  1145   0.413E-02    0.207E-02
Total vdW correction in eV:     53.6814732
RMM:  25    -0.690839681761E+02   -0.55756E-03   -0.13892E-04  1084   0.273E-02    0.781E-03
Total vdW correction in eV:     53.6829642
RMM:  26    -0.690838191260E+02    0.14905E-03   -0.28322E-04  1070   0.283E-02    0.908E-03
Total vdW correction in eV:     53.6831680
RMM:  27    -0.690837318203E+02    0.87306E-04   -0.12595E-04  1003   0.173E-02    0.207E-03
Total vdW correction in eV:     53.6831664
RMM:  28    -0.690837245960E+02    0.72243E-05   -0.74681E-05   884   0.114E-02    0.135E-03
Total vdW correction in eV:     53.6830857
RMM:  29    -0.690837316302E+02   -0.70342E-05   -0.45276E-05   865   0.882E-03    0.647E-04
Total vdW correction in eV:     53.6830233
RMM:  30    -0.690837587025E+02   -0.27072E-04   -0.24604E-05   851   0.942E-03    0.640E-04
Total vdW correction in eV:     53.6829424
RMM:  31    -0.690837932674E+02   -0.34565E-04   -0.94320E-06   813   0.569E-03    0.979E-04
Total vdW correction in eV:     53.6829178
RMM:  32    -0.690838053599E+02   -0.12092E-04   -0.30160E-06   725   0.378E-03    0.929E-04
Total vdW correction in eV:     53.6828834
RMM:  33    -0.690837752954E+02    0.30064E-04   -0.12311E-05   972   0.543E-03    0.595E-04
Total vdW correction in eV:     53.6828768
RMM:  34    -0.690837801889E+02   -0.48935E-05   -0.62520E-06   930   0.412E-03
Total vdW correction in eV:     53.6828499
Total vdW correction in eV:     53.6828668
   1 F= -.69083780E+02 E0= -.69083780E+02  d E =0.000000E+00
 augmentation electrons   4.46175281593940     
 soft         electrons   133.578498457452     
 augmentation electrons   4.46175281593940     
 soft         electrons   133.578498457452     
 augmentation electrons   4.46175281593940     
 soft         electrons   133.578498457452     
 augmentation electrons   4.46175281593940     
 soft         electrons   133.578498457452     
 augmentation electrons   4.46175281593940     
 soft         electrons   133.578498457452     
 augmentation electrons   4.46175281593940     
 soft         electrons   133.578498457452     
 augmentation electrons   4.46175281593940     
 soft         electrons   133.578498457452     
 augmentation electrons   4.46175281593940     
 soft         electrons   133.578498457452     
 augmentation electrons   4.46175281593940     
 soft         electrons   133.578498457452     
 augmentation electrons   4.46175281593940     
 soft         electrons   133.578498457452     
 augmentation electrons   4.46175281593940     
 soft         electrons   133.578498457452     
 augmentation electrons   4.46175281593940     
 soft         electrons   133.578498457452     
 augmentation electrons   4.46175281593940     
 soft         electrons   133.578498457452     
 augmentation electrons   4.46175281593940     
 soft         electrons   133.578498457452     
 augmentation electrons   4.46175281593940     
 soft         electrons   133.578498457452     
 augmentation electrons   4.46175281593940     
 soft         electrons   133.578498457452     
 augmentation electrons   4.46175281593940     
 soft         electrons   133.578498457452     
 augmentation electrons   4.46175281593940     
 soft         electrons   133.578498457452     
 augmentation electrons   4.46175281593940     
 soft         electrons   133.578498457452     
 augmentation electrons   4.46175281593940     
 soft         electrons   133.578498457452     
 augmentation electrons   4.46175281593940     
 soft         electrons   133.578498457452     
 augmentation electrons   4.46175281593940     
 soft         electrons   133.578498457452     
 augmentation electrons   4.46175281593940     
 soft         electrons   133.578498457452     
 augmentation electrons   4.46175281593940     
 soft         electrons   133.578498457452     
 augmentation electrons   4.46175281593940     
 soft         electrons   133.578498457452     
 augmentation electrons   4.46175281593940     
 soft         electrons   133.578498457452     
 augmentation electrons   4.46175281593940     
 soft         electrons   133.578498457452     
 augmentation electrons   4.46175281593940     
 soft         electrons   133.578498457452     
 augmentation electrons   4.46175281593940     
 soft         electrons   133.578498457452     
 augmentation electrons   4.46175281593940     
 soft         electrons   133.578498457452     
 augmentation electrons   4.46175281593940     
 soft         electrons   133.578498457452     
 augmentation electrons   4.46175281593940     
 soft         electrons   133.578498457452     
 augmentation electrons   4.46175281593940     
 soft         electrons   133.578498457452     
 augmentation electrons   4.46175281593940     
 soft         electrons   133.578498457452     
 augmentation electrons   4.46175281593940     
 augmentation electrons   4.46175281593940     
 soft         electrons   133.578498457452     
 augmentation electrons   4.46175281593940     
 soft         electrons   133.578498457452     
 augmentation electrons   4.46175281593940     
 soft         electrons   133.578498457452     
 augmentation electrons   4.46175281593940     
 soft         electrons   133.578498457452     
 augmentation electrons   4.46175281593940     
 soft         electrons   133.578498457452     
 total        electrons   138.040251273391     
 augmentation electrons   4.46175281593940     
 soft         electrons   133.578498457452     
 augmentation electrons   4.46175281593940     
 soft         electrons   133.578498457452     
 augmentation electrons   4.46175281593940     
 soft         electrons   133.578498457452     
 total        electrons   138.040251273391     
 augmentation electrons   4.46175281593940     
 soft         electrons   133.578498457452     
 augmentation electrons   4.46175281593940     
 soft         electrons   133.578498457452     
 augmentation electrons   4.46175281593940     
 soft         electrons   133.578498457452     
 total        electrons   138.040251273391     
 augmentation electrons   4.46175281593940     
 soft         electrons   133.578498457452     
 augmentation electrons   4.46175281593940     
 soft         electrons   133.578498457452     
 augmentation electrons   4.46175281593940     
 soft         electrons   133.578498457452     
 total        electrons   138.040251273391     
 augmentation electrons   4.46175281593940     
 soft         electrons   133.578498457452     
 augmentation electrons   4.46175281593940     
 soft         electrons   133.578498457452     
 augmentation electrons   4.46175281593940     
 soft         electrons   133.578498457452     
 total        electrons   138.040251273391     
 augmentation electrons   4.46175281593940     
 soft         electrons   133.578498457452     
 augmentation electrons   4.46175281593940     
 soft         electrons   133.578498457452     
 augmentation electrons   4.46175281593940     
 soft         electrons   133.578498457452     
 total        electrons   138.040251273391     
 augmentation electrons   4.46175281593940     
 soft         electrons   133.578498457452     
 augmentation electrons   4.46175281593940     
 soft         electrons   133.578498457452     
 augmentation electrons   4.46175281593940     
 soft         electrons   133.578498457452     
 total        electrons   138.040251273391     
 augmentation electrons   4.46175281593940     
 soft         electrons   133.578498457452     
 augmentation electrons   4.46175281593940     
 soft         electrons   133.578498457452     
 total        electrons   138.040251273391     
 augmentation electrons   4.46175281593940     
 soft         electrons   133.578498457452     
 augmentation electrons   4.46175281593940     
 total        electrons   138.040251273391     
 augmentation electrons   4.46175281593940     
 soft         electrons   133.578498457452     
 augmentation electrons   4.46175281593940     
 soft         electrons   133.578498457452     
 total        electrons   138.040251273391     
 augmentation electrons   4.46175281593940     
 soft         electrons   133.578498457452     
 augmentation electrons   4.46175281593940     
 soft         electrons   133.578498457452     
 total        electrons   138.040251273391     
 augmentation electrons   4.46175281593940     
 soft         electrons   133.578498457452     
 augmentation electrons   4.46175281593940     
 soft         electrons   133.578498457452     
 total        electrons   138.040251273391     
 augmentation electrons   4.46175281593940     
 soft         electrons   133.578498457452     
 soft         electrons   133.578498457452     
 total        electrons   138.040251273391     
 augmentation electrons   4.46175281593940     
 soft         electrons   133.578498457452     
 total        electrons   138.040251273391     
 total        electrons   138.040251273391     
 augmentation electrons   4.46175281593940     
 soft         electrons   133.578498457452     
 total        electrons   138.040251273391     
 total        electrons   138.040251273391     
 augmentation electrons   4.46175281593940     
 soft         electrons   133.578498457452     
 total        electrons   138.040251273391     
 total        electrons   138.040251273391     
 soft         electrons   133.578498457452     
 total        electrons   138.040251273391     
 total        electrons   138.040251273391     
 total        electrons   138.040251273391     
 total        electrons   138.040251273391     
 total        electrons   138.040251273391     
 total        electrons   138.040251273391     
 total        electrons   138.040251273391     
 total        electrons   138.040251273391     
 total        electrons   138.040251273391     
 total        electrons   138.040251273391     
 total        electrons   138.040251273391     
 total        electrons   138.040251273391     
 total        electrons   138.040251273391     
 total        electrons   138.040251273391     
 total        electrons   138.040251273391     
 total        electrons   138.040251273391     
 total        electrons   138.040251273391     
 total        electrons   138.040251273391     
 total        electrons   138.040251273391     
 total        electrons   138.040251273391     
 total        electrons   138.040251273391     
 total        electrons   138.040251273391     
 total        electrons   138.040251273391     
 total        electrons   138.040251273391     
 total        electrons   138.040251273391     
 total        electrons   138.040251273391     
 total        electrons   138.040251273391     
 total        electrons   138.040251273391     
 total        electrons   138.040251273391     
 total        electrons   138.040251273391     
 total        electrons   138.040251273391     
 total        electrons   138.040251273391     
 total        electrons   138.040251273391     
 total        electrons   138.040251273391     
 total        electrons   138.040251273391     
 total        electrons   138.040251273391     
 total        electrons   138.040251273391     
 total        electrons   138.040251273391     
 total        electrons   138.040251273391     
 total        electrons   138.040251273391     
 total        electrons   138.040251273391     
 total        electrons   138.040251273391     
 total        electrons   138.040251273391     
 total        electrons   138.040251273391     
 total        electrons   138.040251273391     
 total        electrons   138.040251273391     
 total        electrons   138.040251273391     
 total        electrons   138.040251273391     
 total        electrons   138.040251273391     
 total        electrons   138.040251273391     
 total        electrons   138.040251273391     
 total        electrons   138.040251273391     
 total        electrons   138.040251273391     
