<?xml version="1.0" encoding="ISO-8859-1"?>
<modeling>
 <generator>
  <i name="program" type="string">vasp </i>
  <i name="version" type="string">5.4.4.18Apr17-6-g9f103f2a35  </i>
  <i name="subversion" type="string">(build Jun 08 2018 12:06:12) complex            parallel </i>
  <i name="platform" type="string">LinuxIFC </i>
  <i name="date" type="string">2019 06 06 </i>
  <i name="time" type="string">07:39:16 </i>
 </generator>
 <incar>
  <i type="string" name="SYSTEM"> Mg_slab_in_a_box</i>
  <i type="string" name="PREC">accurate</i>
  <i type="string" name="ALGO"> V</i>
  <i type="int" name="NELM">   300</i>
  <i type="int" name="NELMIN">     6</i>
  <i name="EDIFF">      0.00000500</i>
  <i name="ENCUT">    520.00000000</i>
  <i type="string" name="LREAL"> AUTO</i>
  <i type="logical" name="LPLANE"> T  </i>
  <i type="int" name="ISMEAR">    -5</i>
  <i type="logical" name="LWAVE"> F  </i>
  <i type="logical" name="LCHARG"> T  </i>
  <i type="logical" name="LVTOT"> T  </i>
  <i type="logical" name="LVHAR"> T  </i>
  <i type="logical" name="LSCALU"> F  </i>
  <i type="logical" name="LASPH"> T  </i>
  <i type="logical" name="LAECHG"> T  </i>
  <v type="int" name="KPOINT_BSE">    -1     0     0     0</v>
  <i type="int" name="NELM">   300</i>
  <i type="string" name="GGA"> BO</i>
  <i name="PARAM1">      0.18333333</i>
  <i name="PARAM2">      0.22000000</i>
  <i type="logical" name="LUSE_VDW"> T  </i>
  <i name="AGGAC">      0.00000000</i>
  <i type="logical" name="LDIPOL"> T  </i>
  <i type="int" name="IDIPOL">     3</i>
  <i type="logical" name="LASPH"> T  </i>
 </incar>
 <structure name="primitive_cell" >
  <crystal>
   <varray name="basis" >
    <v>       9.55575275       0.00000000       0.00000000 </v>
    <v>      -4.77787638       8.27552464       0.00000000 </v>
    <v>       0.00000000       0.00000000      32.62509537 </v>
   </varray>
   <i name="volume">   2579.95558872 </i>
   <varray name="rec_basis" >
    <v>       0.10464900       0.06041913       0.00000000 </v>
    <v>       0.00000000       0.12083826       0.00000000 </v>
    <v>       0.00000000       0.00000000       0.03065125 </v>
   </varray>
  </crystal>
  <varray name="positions" >
   <v>       0.00000000       0.00000000       0.00000000 </v>
   <v>       0.00000002      -0.33333328       0.00000000 </v>
   <v>      -0.33333330      -0.33333328       0.00000000 </v>
   <v>      -0.33333332       0.00000000       0.00000000 </v>
   <v>       0.33333334       0.00000000       0.00000000 </v>
   <v>       0.00000001       0.33333336       0.00000000 </v>
   <v>       0.33333335       0.33333336       0.00000000 </v>
   <v>      -0.22222216      -0.11111106       0.07982145 </v>
   <v>       0.11111116      -0.11111106       0.07982145 </v>
   <v>       0.11111113       0.22222222       0.07982145 </v>
   <v>      -0.22222219      -0.44444439       0.07982145 </v>
   <v>      -0.22222221       0.22222222       0.07982145 </v>
   <v>       0.44444450       0.22222222       0.07982145 </v>
   <v>      -0.00083375       0.00166925       0.15818015 </v>
   <v>       0.33333336      -0.33333328       0.00000000 </v>
   <v>      -0.33333332       0.33333336       0.00000000 </v>
   <v>       0.44444450      -0.44444439       0.07982145 </v>
   <v>       0.44444451      -0.11111106       0.07982145 </v>
   <v>       0.11111114      -0.44444439       0.07982145 </v>
   <v>       0.33158660       0.33305345       0.15710588 </v>
   <v>       0.33437440       0.00176957       0.15719502 </v>
   <v>      -0.33024262      -0.33085868       0.15788461 </v>
   <v>       0.00026601      -0.33074850       0.15783558 </v>
   <v>       0.00027871       0.33533101       0.15755356 </v>
   <v>      -0.33397938       0.00006480       0.15782082 </v>
   <v>       0.33336394      -0.33009369       0.15784323 </v>
   <v>      -0.33290136       0.33660783       0.15862254 </v>
   <v>       0.11161990      -0.10365540       0.23466749 </v>
   <v>       0.10547771       0.22241713       0.23654183 </v>
   <v>      -0.22051611      -0.11065158       0.23926703 </v>
   <v>      -0.22598781       0.22479797       0.23543733 </v>
   <v>       0.44960527       0.23424895       0.23608770 </v>
   <v>      -0.22258103      -0.44307920       0.23915734 </v>
   <v>       0.44781845      -0.44044221       0.23377143 </v>
   <v>       0.11722496      -0.43978889       0.23616050 </v>
   <v>       0.44356651      -0.11293744       0.23730058 </v>
   <v>       0.33660635       0.01698398       0.30926939 </v>
   <v>       0.01790492      -0.31300234       0.31180978 </v>
   <v>       0.31776000       0.33248991       0.31209131 </v>
   <v>      -0.00994559       0.34326623       0.31241524 </v>
   <v>      -0.32812869       0.01439942       0.31412741 </v>
   <v>       0.00142889       0.00912822       0.33036434 </v>
   <v>      -0.33981441      -0.32203450       0.31910494 </v>
   <v>       0.42790883      -0.44511241       0.33052485 </v>
   <v>       0.32633228      -0.31571063       0.33015115 </v>
   <v>      -0.33514138       0.34383603       0.33367962 </v>
   <v>      -0.30759967      -0.44888022       0.36393538 </v>
   <v>      -0.20958221      -0.37536160       0.37920068 </v>
   <v>       0.25640763      -0.05952652       0.38364849 </v>
   <v>      -0.13557234       0.20769401       0.38562843 </v>
   <v>       0.00203203       0.00137415       0.39622778 </v>
   <v>       0.09515656       0.00632632       0.41052369 </v>
   <v>      -0.03070470       0.07155865       0.41059734 </v>
   <v>       0.29417343      -0.03469721       0.41262016 </v>
   <v>       0.39471219       0.07122600       0.41065342 </v>
   <v>      -0.11659368       0.22096222       0.41600991 </v>
   <v>       0.35356552      -0.29125043       0.39531445 </v>
   <v>       0.45312549      -0.28322615       0.40580413 </v>
   <v>      -0.39623026       0.26961493       0.40052225 </v>
   <v>      -0.01858485       0.32714115       0.41818794 </v>
   <v>       0.34534603      -0.19930381       0.40701587 </v>
   <v>      -0.37842918       0.38101462       0.40293278 </v>
   <v>      -0.30517330       0.26690270       0.41403793 </v>
  </varray>
 </structure>
 <varray name="primitive_index" >
  <v type="int" >        1 </v>
  <v type="int" >        7 </v>
  <v type="int" >       25 </v>
  <v type="int" >       19 </v>
  <v type="int" >       10 </v>
  <v type="int" >        4 </v>
  <v type="int" >       13 </v>
  <v type="int" >       44 </v>
  <v type="int" >       32 </v>
  <v type="int" >       28 </v>
  <v type="int" >       42 </v>
  <v type="int" >       40 </v>
  <v type="int" >       34 </v>
  <v type="int" >        2 </v>
  <v type="int" >       16 </v>
  <v type="int" >       22 </v>
  <v type="int" >       36 </v>
  <v type="int" >       38 </v>
  <v type="int" >       30 </v>
  <v type="int" >       14 </v>
  <v type="int" >       11 </v>
  <v type="int" >       26 </v>
  <v type="int" >        8 </v>
  <v type="int" >        5 </v>
  <v type="int" >       20 </v>
  <v type="int" >       17 </v>
  <v type="int" >       23 </v>
  <v type="int" >       33 </v>
  <v type="int" >       29 </v>
  <v type="int" >       45 </v>
  <v type="int" >       41 </v>
  <v type="int" >       35 </v>
  <v type="int" >       43 </v>
  <v type="int" >       37 </v>
  <v type="int" >       31 </v>
  <v type="int" >       39 </v>
  <v type="int" >       12 </v>
  <v type="int" >        9 </v>
  <v type="int" >       15 </v>
  <v type="int" >        6 </v>
  <v type="int" >       21 </v>
  <v type="int" >        3 </v>
  <v type="int" >       27 </v>
  <v type="int" >       61 </v>
  <v type="int" >       18 </v>
  <v type="int" >       24 </v>
  <v type="int" >       50 </v>
  <v type="int" >       60 </v>
  <v type="int" >       55 </v>
  <v type="int" >       57 </v>
  <v type="int" >       46 </v>
  <v type="int" >       53 </v>
  <v type="int" >       52 </v>
  <v type="int" >       47 </v>
  <v type="int" >       54 </v>
  <v type="int" >       48 </v>
  <v type="int" >       51 </v>
  <v type="int" >       63 </v>
  <v type="int" >       49 </v>
  <v type="int" >       56 </v>
  <v type="int" >       62 </v>
  <v type="int" >       58 </v>
  <v type="int" >       59 </v>
 </varray>
 <kpoints>
  <generation param="Gamma">
   <v type="int" name="divisions">       3        3        1 </v>
   <v name="usershift">      0.00000000       0.00000000       0.00000000 </v>
   <v name="genvec1">      0.33333333       0.00000000       0.00000000 </v>
   <v name="genvec2">      0.00000000       0.33333333       0.00000000 </v>
   <v name="genvec3">      0.00000000       0.00000000       1.00000000 </v>
   <v name="shift">      0.00000000       0.00000000       0.00000000 </v>
  </generation>
  <varray name="kpointlist" >
   <v>       0.00000000       0.00000000       0.00000000 </v>
   <v>       0.33333333      -0.00000000       0.00000000 </v>
   <v>       0.00000000       0.33333333       0.00000000 </v>
   <v>       0.33333333       0.33333333       0.00000000 </v>
   <v>      -0.33333333       0.33333333       0.00000000 </v>
  </varray>
  <varray name="weights" >
   <v>       0.11111111 </v>
   <v>       0.22222222 </v>
   <v>       0.22222222 </v>
   <v>       0.22222222 </v>
   <v>       0.22222222 </v>
  </varray>
  <varray name="tetrahedronlist"  type="int" >
   <v type="int" >        2        2        3        3        4 </v>
   <v type="int" >        2        1        2        3        3 </v>
   <v type="int" >        2        1        1        2        3 </v>
   <v type="int" >        2        2        3        4        4 </v>
   <v type="int" >        2        2        2        3        4 </v>
   <v type="int" >        2        1        2        2        3 </v>
   <v type="int" >        2        2        4        4        5 </v>
   <v type="int" >        2        2        2        4        4 </v>
   <v type="int" >        4        2        2        2        4 </v>
   <v type="int" >        2        2        4        5        5 </v>
   <v type="int" >        2        2        2        4        5 </v>
   <v type="int" >        2        1        3        5        5 </v>
   <v type="int" >        2        1        2        5        5 </v>
   <v type="int" >        2        1        2        2        5 </v>
   <v type="int" >        2        1        3        3        5 </v>
   <v type="int" >        2        1        1        3        5 </v>
   <v type="int" >        2        1        1        2        5 </v>
   <v type="int" >        2        3        3        4        5 </v>
   <v type="int" >        4        3        3        3        4 </v>
   <v type="int" >        2        3        4        5        5 </v>
   <v type="int" >        2        3        4        4        5 </v>
   <v type="int" >        2        3        3        4        4 </v>
   <v type="int" >        4        4        5        5        5 </v>
   <v type="int" >        2        4        4        5        5 </v>
  </varray>
  <i name="volumeweight">      0.01851852 </i>
 </kpoints>
 <parameters>
  <separator name="general" >
   <i type="string" name="SYSTEM">Mg_slab_in_a_box</i>
   <i type="logical" name="LCOMPAT"> F  </i>
  </separator>
  <separator name="electronic" >
   <i type="string" name="PREC">accura</i>
   <i name="ENMAX">    520.00000000</i>
   <i name="ENAUG">    605.39200000</i>
   <i name="EDIFF">      0.00000500</i>
   <i type="int" name="IALGO">    48</i>
   <i type="int" name="IWAVPR">    10</i>
   <i type="int" name="NBANDS">   102</i>
   <i name="NELECT">    138.00000000</i>
   <i type="int" name="TURBO">     0</i>
   <i type="int" name="IRESTART">     0</i>
   <i type="int" name="NREBOOT">     0</i>
   <i type="int" name="NMIN">     0</i>
   <i name="EREF">      0.00000000</i>
   <separator name="electronic smearing" >
    <i type="int" name="ISMEAR">    -5</i>
    <i name="SIGMA">      0.20000000</i>
    <i name="KSPACING">      0.50000000</i>
    <i type="logical" name="KGAMMA"> T  </i>
   </separator>
   <separator name="electronic projectors" >
    <i type="logical" name="LREAL"> T  </i>
    <v name="ROPT">     -0.00025000     -0.00025000     -0.00025000</v>
    <i type="int" name="LMAXPAW">  -100</i>
    <i type="int" name="LMAXMIX">     2</i>
    <i type="logical" name="NLSPLINE"> F  </i>
   </separator>
   <separator name="electronic startup" >
    <i type="int" name="ISTART">     0</i>
    <i type="int" name="ICHARG">     2</i>
    <i type="int" name="INIWAV">     1</i>
   </separator>
   <separator name="electronic spin" >
    <i type="int" name="ISPIN">     1</i>
    <i type="logical" name="LNONCOLLINEAR"> F  </i>
    <v name="MAGMOM">      1.00000000      1.00000000      1.00000000      1.00000000      1.00000000      1.00000000      1.00000000      1.00000000      1.00000000      1.00000000      1.00000000      1.00000000      1.00000000      1.00000000      1.00000000      1.00000000      1.00000000      1.00000000      1.00000000      1.00000000
      1.00000000      1.00000000      1.00000000      1.00000000      1.00000000      1.00000000      1.00000000      1.00000000      1.00000000      1.00000000      1.00000000      1.00000000      1.00000000      1.00000000      1.00000000      1.00000000      1.00000000      1.00000000      1.00000000      1.00000000
      1.00000000      1.00000000      1.00000000      1.00000000      1.00000000      1.00000000      1.00000000      1.00000000      1.00000000      1.00000000      1.00000000      1.00000000      1.00000000      1.00000000      1.00000000      1.00000000      1.00000000      1.00000000      1.00000000      1.00000000
      1.00000000      1.00000000      1.00000000</v>
    <i name="NUPDOWN">     -1.00000000</i>
    <i type="logical" name="LSORBIT"> F  </i>
    <v name="SAXIS">      0.00000000      0.00000000      1.00000000</v>
    <i type="logical" name="LSPIRAL"> F  </i>
    <v name="QSPIRAL">      0.00000000      0.00000000      0.00000000</v>
    <i type="logical" name="LZEROZ"> F  </i>
   </separator>
   <separator name="electronic exchange-correlation" >
    <i type="logical" name="LASPH"> T  </i>
    <i type="logical" name="LMETAGGA"> F  </i>
   </separator>
   <separator name="electronic convergence" >
    <i type="int" name="NELM">   300</i>
    <i type="int" name="NELMDL">   -12</i>
    <i type="int" name="NELMIN">     6</i>
    <i name="ENINI">    520.00000000</i>
    <separator name="electronic convergence detail" >
     <i type="logical" name="LDIAG"> T  </i>
     <i type="logical" name="LSUBROT"> F  </i>
     <i name="WEIMIN">      0.00000000</i>
     <i name="EBREAK">      0.00000001</i>
     <i name="DEPER">      0.30000000</i>
     <i type="int" name="NRMM">     4</i>
     <i name="TIME">      0.40000000</i>
    </separator>
   </separator>
   <separator name="electronic mixer" >
    <i name="AMIX">      0.40000000</i>
    <i name="BMIX">      1.00000000</i>
    <i name="AMIN">      0.10000000</i>
    <i name="AMIX_MAG">      1.60000000</i>
    <i name="BMIX_MAG">      1.00000000</i>
    <separator name="electronic mixer details" >
     <i type="int" name="IMIX">     4</i>
     <i type="logical" name="MIXFIRST"> F  </i>
     <i type="int" name="MAXMIX">   -45</i>
     <i name="WC">    100.00000000</i>
     <i type="int" name="INIMIX">     1</i>
     <i type="int" name="MIXPRE">     1</i>
     <i type="int" name="MREMOVE">     5</i>
    </separator>
   </separator>
   <separator name="electronic dipolcorrection" >
    <i type="logical" name="LDIPOL"> T  </i>
    <i type="logical" name="LMONO"> F  </i>
    <i type="int" name="IDIPOL">     3</i>
    <i name="EPSILON">      1.00000000</i>
    <v name="DIPOL">   -100.00000000   -100.00000000   -100.00000000</v>
    <i name="EFIELD">      0.00000000</i>
   </separator>
  </separator>
  <separator name="grids" >
   <i type="int" name="NGX">    72</i>
   <i type="int" name="NGY">    72</i>
   <i type="int" name="NGZ">   250</i>
   <i type="int" name="NGXF">   144</i>
   <i type="int" name="NGYF">   144</i>
   <i type="int" name="NGZF">   500</i>
   <i type="logical" name="ADDGRID"> F  </i>
  </separator>
  <separator name="ionic" >
   <i type="int" name="NSW">     0</i>
   <i type="int" name="IBRION">    -1</i>
   <i type="int" name="MDALGO">     0</i>
   <i type="int" name="ISIF">     2</i>
   <i name="PSTRESS">      0.00000000</i>
   <i name="EDIFFG">      0.00005000</i>
   <i type="int" name="NFREE">     0</i>
   <i name="POTIM">      0.50000000</i>
   <i name="SMASS">     -3.00000000</i>
   <i name="SCALEE">      1.00000000</i>
  </separator>
  <separator name="ionic md" >
   <i name="TEBEG">      0.00010000</i>
   <i name="TEEND">      0.00010000</i>
   <i type="int" name="NBLOCK">     1</i>
   <i type="int" name="KBLOCK">     1</i>
   <i type="int" name="NPACO">   256</i>
   <i name="APACO">     16.00000000</i>
  </separator>
  <separator name="symmetry" >
   <i type="int" name="ISYM">     2</i>
   <i name="SYMPREC">      0.00001000</i>
  </separator>
  <separator name="dos" >
   <i type="int" name="LORBIT">     0</i>
   <v name="RWIGS">     -1.00000000     -1.00000000     -1.00000000</v>
   <i type="int" name="NEDOS">   301</i>
   <i name="EMIN">     10.00000000</i>
   <i name="EMAX">    -10.00000000</i>
   <i name="EFERMI">      0.00000000</i>
  </separator>
  <separator name="writing" >
   <i type="int" name="NWRITE">     2</i>
   <i type="logical" name="LWAVE"> F  </i>
   <i type="logical" name="LDOWNSAMPLE"> F  </i>
   <i type="logical" name="LCHARG"> T  </i>
   <i type="logical" name="LPARD"> F  </i>
   <i type="logical" name="LVTOT"> F  </i>
   <i type="logical" name="LVHAR"> T  </i>
   <i type="logical" name="LELF"> F  </i>
   <i type="logical" name="LOPTICS"> F  </i>
   <v name="STM">      0.00000000      0.00000000      0.00000000      0.00000000      0.00000000      0.00000000      0.00000000</v>
  </separator>
  <separator name="performance" >
   <i type="int" name="NPAR">     3</i>
   <i type="int" name="NSIM">     4</i>
   <i type="int" name="NBLK">    -1</i>
   <i type="logical" name="LPLANE"> T  </i>
   <i type="logical" name="LSCALAPACK"> T  </i>
   <i type="logical" name="LSCAAWARE"> F  </i>
   <i type="logical" name="LSCALU"> F  </i>
   <i type="logical" name="LASYNC"> F  </i>
   <i type="logical" name="LORBITALREAL"> F  </i>
  </separator>
  <separator name="miscellaneous" >
   <i type="int" name="IDIOT">     3</i>
   <i type="int" name="ISPECIAL">     0</i>
   <i type="logical" name="LMUSIC"> F  </i>
   <v name="POMASS">     24.30500000     16.00000000      1.00000000</v>
   <v name="DARWINR">      0.00000000      0.00000000      0.00000000</v>
   <v name="DARWINV">      1.00000000      1.00000000      1.00000000</v>
   <i type="logical" name="LCORR"> T  </i>
  </separator>
  <i type="logical" name="GGA_COMPAT"> T  </i>
  <i type="logical" name="LBERRY"> F  </i>
  <i type="int" name="ICORELEVEL">     0</i>
  <i type="logical" name="LDAU"> F  </i>
  <i type="int" name="I_CONSTRAINED_M">     0</i>
  <separator name="electronic exchange-correlation" >
   <i type="string" name="GGA">BO</i>
   <i type="int" name="VOSKOWN">     0</i>
   <i type="logical" name="LHFCALC"> F  </i>
   <i type="string" name="PRECFOCK"></i>
   <i type="logical" name="LSYMGRAD"> F  </i>
   <i type="logical" name="LHFONE"> F  </i>
   <i type="logical" name="LRHFCALC"> F  </i>
   <i type="logical" name="LTHOMAS"> F  </i>
   <i type="logical" name="LMODELHF"> F  </i>
   <i name="ENCUT4O">     -1.00000000</i>
   <i type="int" name="EXXOEP">     0</i>
   <i type="int" name="FOURORBIT">     0</i>
   <i name="AEXX">      0.00000000</i>
   <i name="HFALPHA">      0.00000000</i>
   <i name="MCALPHA">      0.00000000</i>
   <i name="ALDAX">      1.00000000</i>
   <i name="AGGAX">      1.00000000</i>
   <i name="ALDAC">      1.00000000</i>
   <i name="AGGAC">      0.00000000</i>
   <i type="int" name="NKREDX">     1</i>
   <i type="int" name="NKREDY">     1</i>
   <i type="int" name="NKREDZ">     1</i>
   <i type="logical" name="SHIFTRED"> F  </i>
   <i type="logical" name="ODDONLY"> F  </i>
   <i type="logical" name="EVENONLY"> F  </i>
   <i type="int" name="LMAXFOCK">     0</i>
   <i type="int" name="NMAXFOCKAE">     0</i>
   <i type="logical" name="LFOCKAEDFT"> F  </i>
   <i name="HFSCREEN">      0.00000000</i>
   <i name="HFSCREENC">      0.00000000</i>
   <i type="int" name="NBANDSGWLOW">     0</i>
  </separator>
  <separator name="vdW DFT" >
   <i type="logical" name="LUSE_VDW"> T  </i>
   <i name="Zab_VDW">     -0.84910000</i>
   <i name="PARAM1">      0.18333333</i>
   <i name="PARAM2">      0.22000000</i>
   <i name="PARAM3">      0.00000000</i>
  </separator>
  <separator name="model GW" >
   <i type="int" name="MODEL_GW">     0</i>
   <i name="MODEL_EPS0">     24.57100561</i>
   <i name="MODEL_ALPHA">      1.00000000</i>
  </separator>
  <separator name="linear response parameters" >
   <i type="logical" name="LEPSILON"> F  </i>
   <i type="logical" name="LRPA"> F  </i>
   <i type="logical" name="LNABLA"> F  </i>
   <i type="logical" name="LVEL"> F  </i>
   <i type="int" name="KINTER">     0</i>
   <i name="CSHIFT">      0.10000000</i>
   <i name="OMEGAMAX">     -1.00000000</i>
   <i name="DEG_THRESHOLD">      0.00200000</i>
   <i name="RTIME">     -0.10000000</i>
   <i name="WPLASMAI">      0.00000000</i>
   <v name="DFIELD">      0.00000000      0.00000000      0.00000000</v>
   <v name="WPLASMA">      0.00000000      0.00000000      0.00000000      0.00000000      0.00000000      0.00000000      0.00000000      0.00000000      0.00000000</v>
  </separator>
  <separator name="orbital magnetization" >
   <i type="logical" name="NUCIND"> F  </i>
   <v name="MAGPOS">      0.00000000      0.00000000      0.00000000</v>
   <i type="logical" name="LNICSALL"> T  </i>
   <i type="logical" name="ORBITALMAG"> F  </i>
   <i type="logical" name="LMAGBLOCH"> F  </i>
   <i type="logical" name="LCHIMAG"> F  </i>
   <i type="logical" name="LGAUGE"> T  </i>
   <i type="int" name="MAGATOM">     0</i>
   <v name="MAGDIPOL">      0.00000000      0.00000000      0.00000000</v>
   <v name="AVECCONST">      0.00000000      0.00000000      0.00000000</v>
  </separator>
  <separator name="response functions" >
   <i type="logical" name="LADDER"> F  </i>
   <i type="logical" name="LRPAFORCE"> F  </i>
   <i type="logical" name="LFXC"> F  </i>
   <i type="logical" name="LHARTREE"> T  </i>
   <i type="int" name="IBSE">     0</i>
   <v type="int" name="KPOINT">    -1     0     0     0</v>
   <i type="logical" name="LTCTE"> F  </i>
   <i type="logical" name="LTETE"> F  </i>
   <i type="logical" name="LTRIPLET"> F  </i>
   <i type="logical" name="LFXCEPS"> F  </i>
   <i type="logical" name="LFXHEG"> F  </i>
   <i type="int" name="NATURALO">     2</i>
   <i type="logical" name="L2ORDER"> F  </i>
   <i type="logical" name="LMP2LT"> F  </i>
   <i type="logical" name="LUSEW"> F  </i>
   <i name="ENCUTGW">     -2.00000000</i>
   <i name="ENCUTGWSOFT">     -2.00000000</i>
   <i name="ENCUTLF">     -1.00000000</i>
   <i type="int" name="LMAXMP2">    -1</i>
   <i name="SCISSOR">      0.00000000</i>
   <i type="int" name="NOMEGA">     0</i>
   <i type="int" name="NOMEGAR">     0</i>
   <i type="int" name="NBANDSGW">    -1</i>
   <i type="int" name="NBANDSO">    -1</i>
   <i type="int" name="NBANDSV">    -1</i>
   <i type="int" name="NELM">   300</i>
   <i type="int" name="NELMHF">     1</i>
   <i type="int" name="DIM">     3</i>
   <i type="int" name="ANTIRES">     0</i>
   <i name="OMEGAMAX">    -30.00000000</i>
   <i name="OMEGAMIN">    -30.00000000</i>
   <i name="OMEGATL">   -200.00000000</i>
   <i type="int" name="OMEGAGRID">   140</i>
   <i name="CSHIFT">     -0.10000000</i>
   <i type="logical" name="SELFENERGY"> F  </i>
   <i type="logical" name="LSPECTRAL"> F  </i>
   <i type="logical" name="LSPECTRALGW"> F  </i>
   <i type="logical" name="LSINGLES"> F  </i>
   <i type="logical" name="LFERMIGW"> F  </i>
   <i type="logical" name="ODDONLYGW"> F  </i>
   <i type="logical" name="EVENONLYGW"> F  </i>
   <i type="int" name="NKREDLFX">     1</i>
   <i type="int" name="NKREDLFY">     1</i>
   <i type="int" name="NKREDLFZ">     1</i>
   <i type="int" name="MAXMEM">  2800</i>
   <i type="int" name="TELESCOPE">     0</i>
   <i type="int" name="TAUPAR">     1</i>
   <i type="int" name="OMEGAPAR">    -1</i>
   <i name="LAMBDA">      1.00000000</i>
  </separator>
  <separator name="External order field" >
   <i name="OFIELD_KAPPA">      0.00000000</i>
   <v name="OFIELD_K">      0.00000000      0.00000000      0.00000000</v>
   <i name="OFIELD_Q6_NEAR">      0.00000000</i>
   <i name="OFIELD_Q6_FAR">      0.00000000</i>
   <i name="OFIELD_A">      0.00000000</i>
  </separator>
 </parameters>
 <atominfo>
  <atoms>      63 </atoms>
  <types>       3 </types>
  <array name="atoms" >
   <dimension dim="1">ion</dimension>
   <field type="string">element</field>
   <field type="int">atomtype</field>
   <set>
    <rc><c>Mg</c><c>   1</c></rc>
    <rc><c>Mg</c><c>   1</c></rc>
    <rc><c>Mg</c><c>   1</c></rc>
    <rc><c>Mg</c><c>   1</c></rc>
    <rc><c>Mg</c><c>   1</c></rc>
    <rc><c>Mg</c><c>   1</c></rc>
    <rc><c>Mg</c><c>   1</c></rc>
    <rc><c>Mg</c><c>   1</c></rc>
    <rc><c>Mg</c><c>   1</c></rc>
    <rc><c>Mg</c><c>   1</c></rc>
    <rc><c>Mg</c><c>   1</c></rc>
    <rc><c>Mg</c><c>   1</c></rc>
    <rc><c>Mg</c><c>   1</c></rc>
    <rc><c>Mg</c><c>   1</c></rc>
    <rc><c>Mg</c><c>   1</c></rc>
    <rc><c>Mg</c><c>   1</c></rc>
    <rc><c>Mg</c><c>   1</c></rc>
    <rc><c>Mg</c><c>   1</c></rc>
    <rc><c>Mg</c><c>   1</c></rc>
    <rc><c>Mg</c><c>   1</c></rc>
    <rc><c>Mg</c><c>   1</c></rc>
    <rc><c>Mg</c><c>   1</c></rc>
    <rc><c>Mg</c><c>   1</c></rc>
    <rc><c>Mg</c><c>   1</c></rc>
    <rc><c>Mg</c><c>   1</c></rc>
    <rc><c>Mg</c><c>   1</c></rc>
    <rc><c>Mg</c><c>   1</c></rc>
    <rc><c>Mg</c><c>   1</c></rc>
    <rc><c>Mg</c><c>   1</c></rc>
    <rc><c>Mg</c><c>   1</c></rc>
    <rc><c>Mg</c><c>   1</c></rc>
    <rc><c>Mg</c><c>   1</c></rc>
    <rc><c>Mg</c><c>   1</c></rc>
    <rc><c>Mg</c><c>   1</c></rc>
    <rc><c>Mg</c><c>   1</c></rc>
    <rc><c>Mg</c><c>   1</c></rc>
    <rc><c>Mg</c><c>   1</c></rc>
    <rc><c>Mg</c><c>   1</c></rc>
    <rc><c>Mg</c><c>   1</c></rc>
    <rc><c>Mg</c><c>   1</c></rc>
    <rc><c>Mg</c><c>   1</c></rc>
    <rc><c>Mg</c><c>   1</c></rc>
    <rc><c>Mg</c><c>   1</c></rc>
    <rc><c>Mg</c><c>   1</c></rc>
    <rc><c>Mg</c><c>   1</c></rc>
    <rc><c>O </c><c>   2</c></rc>
    <rc><c>O </c><c>   2</c></rc>
    <rc><c>O </c><c>   2</c></rc>
    <rc><c>O </c><c>   2</c></rc>
    <rc><c>O </c><c>   2</c></rc>
    <rc><c>O </c><c>   2</c></rc>
    <rc><c>H </c><c>   3</c></rc>
    <rc><c>H </c><c>   3</c></rc>
    <rc><c>H </c><c>   3</c></rc>
    <rc><c>H </c><c>   3</c></rc>
    <rc><c>H </c><c>   3</c></rc>
    <rc><c>H </c><c>   3</c></rc>
    <rc><c>H </c><c>   3</c></rc>
    <rc><c>H </c><c>   3</c></rc>
    <rc><c>H </c><c>   3</c></rc>
    <rc><c>H </c><c>   3</c></rc>
    <rc><c>H </c><c>   3</c></rc>
    <rc><c>H </c><c>   3</c></rc>
   </set>
  </array>
  <array name="atomtypes" >
   <dimension dim="1">type</dimension>
   <field type="int">atomspertype</field>
   <field type="string">element</field>
   <field>mass</field>
   <field>valence</field>
   <field type="string">pseudopotential</field>
   <set>
    <rc><c>  45</c><c>Mg</c><c>     24.30500000</c><c>      2.00000000</c><c>  PAW_PBE Mg 13Apr2007                  </c></rc>
    <rc><c>   6</c><c>O </c><c>     16.00000000</c><c>      6.00000000</c><c>  PAW_PBE O 08Apr2002                   </c></rc>
    <rc><c>  12</c><c>H </c><c>      1.00000000</c><c>      1.00000000</c><c>  PAW_PBE H 15Jun2001                   </c></rc>
   </set>
  </array>
 </atominfo>
 <structure name="initialpos" >
  <crystal>
   <varray name="basis" >
    <v>       9.55575275       0.00000000       0.00000000 </v>
    <v>      -4.77787638       8.27552464       0.00000000 </v>
    <v>       0.00000000       0.00000000      32.62509537 </v>
   </varray>
   <i name="volume">   2579.95558872 </i>
   <varray name="rec_basis" >
    <v>       0.10464900       0.06041913       0.00000000 </v>
    <v>       0.00000000       0.12083826       0.00000000 </v>
    <v>       0.00000000       0.00000000       0.03065125 </v>
   </varray>
  </crystal>
  <varray name="positions" >
   <v>       0.00000000       0.00000000       0.00000000 </v>
   <v>       0.99916625       0.00166925       0.15818015 </v>
   <v>       0.00142889       0.00912822       0.33036434 </v>
   <v>       0.00000001       0.33333336       0.00000000 </v>
   <v>       0.00027871       0.33533101       0.15755356 </v>
   <v>       0.99005441       0.34326623       0.31241524 </v>
   <v>       0.00000002       0.66666672       0.00000000 </v>
   <v>       0.00026601       0.66925150       0.15783558 </v>
   <v>       0.01790492       0.68699766       0.31180978 </v>
   <v>       0.33333334       0.00000000       0.00000000 </v>
   <v>       0.33437440       0.00176957       0.15719502 </v>
   <v>       0.33660635       0.01698398       0.30926939 </v>
   <v>       0.33333335       0.33333336       0.00000000 </v>
   <v>       0.33158660       0.33305345       0.15710588 </v>
   <v>       0.31776000       0.33248991       0.31209131 </v>
   <v>       0.33333336       0.66666672       0.00000000 </v>
   <v>       0.33336394       0.66990631       0.15784323 </v>
   <v>       0.32633228       0.68428937       0.33015115 </v>
   <v>       0.66666668       0.00000000       0.00000000 </v>
   <v>       0.66602062       0.00006480       0.15782082 </v>
   <v>       0.67187131       0.01439942       0.31412741 </v>
   <v>       0.66666668       0.33333336       0.00000000 </v>
   <v>       0.66709864       0.33660783       0.15862254 </v>
   <v>       0.66485862       0.34383603       0.33367962 </v>
   <v>       0.66666670       0.66666672       0.00000000 </v>
   <v>       0.66975738       0.66914132       0.15788461 </v>
   <v>       0.66018559       0.67796550       0.31910494 </v>
   <v>       0.11111113       0.22222222       0.07982145 </v>
   <v>       0.10547771       0.22241713       0.23654183 </v>
   <v>       0.11111114       0.55555561       0.07982145 </v>
   <v>       0.11722496       0.56021111       0.23616050 </v>
   <v>       0.11111116       0.88888894       0.07982145 </v>
   <v>       0.11161990       0.89634460       0.23466749 </v>
   <v>       0.44444450       0.22222222       0.07982145 </v>
   <v>       0.44960527       0.23424895       0.23608770 </v>
   <v>       0.44444450       0.55555561       0.07982145 </v>
   <v>       0.44781845       0.55955779       0.23377143 </v>
   <v>       0.44444451       0.88888894       0.07982145 </v>
   <v>       0.44356651       0.88706256       0.23730058 </v>
   <v>       0.77777779       0.22222222       0.07982145 </v>
   <v>       0.77401219       0.22479797       0.23543733 </v>
   <v>       0.77777781       0.55555561       0.07982145 </v>
   <v>       0.77741897       0.55692080       0.23915734 </v>
   <v>       0.77777784       0.88888894       0.07982145 </v>
   <v>       0.77948389       0.88934842       0.23926703 </v>
   <v>       0.00203203       0.00137415       0.39622778 </v>
   <v>       0.29417343       0.96530279       0.41262016 </v>
   <v>       0.88340632       0.22096222       0.41600991 </v>
   <v>       0.60376974       0.26961493       0.40052225 </v>
   <v>       0.69240033       0.55111978       0.36393538 </v>
   <v>       0.35356552       0.70874957       0.39531445 </v>
   <v>       0.96929530       0.07155865       0.41059734 </v>
   <v>       0.09515656       0.00632632       0.41052369 </v>
   <v>       0.39471219       0.07122600       0.41065342 </v>
   <v>       0.25640763       0.94047348       0.38364849 </v>
   <v>       0.98141515       0.32714115       0.41818794 </v>
   <v>       0.86442766       0.20769401       0.38562843 </v>
   <v>       0.62157082       0.38101462       0.40293278 </v>
   <v>       0.69482670       0.26690270       0.41403793 </v>
   <v>       0.79041779       0.62463840       0.37920068 </v>
   <v>       0.42790883       0.55488759       0.33052485 </v>
   <v>       0.34534603       0.80069619       0.40701587 </v>
   <v>       0.45312549       0.71677385       0.40580413 </v>
  </varray>
  <varray name="selective"  type="logical" >
   <v type="logical" >  F  F  F </v>
   <v type="logical" >  T  T  T </v>
   <v type="logical" >  T  T  T </v>
   <v type="logical" >  F  F  F </v>
   <v type="logical" >  T  T  T </v>
   <v type="logical" >  T  T  T </v>
   <v type="logical" >  F  F  F </v>
   <v type="logical" >  T  T  T </v>
   <v type="logical" >  T  T  T </v>
   <v type="logical" >  F  F  F </v>
   <v type="logical" >  T  T  T </v>
   <v type="logical" >  T  T  T </v>
   <v type="logical" >  F  F  F </v>
   <v type="logical" >  T  T  T </v>
   <v type="logical" >  T  T  T </v>
   <v type="logical" >  F  F  F </v>
   <v type="logical" >  T  T  T </v>
   <v type="logical" >  T  T  T </v>
   <v type="logical" >  F  F  F </v>
   <v type="logical" >  T  T  T </v>
   <v type="logical" >  T  T  T </v>
   <v type="logical" >  F  F  F </v>
   <v type="logical" >  T  T  T </v>
   <v type="logical" >  T  T  T </v>
   <v type="logical" >  F  F  F </v>
   <v type="logical" >  T  T  T </v>
   <v type="logical" >  T  T  T </v>
   <v type="logical" >  F  F  F </v>
   <v type="logical" >  T  T  T </v>
   <v type="logical" >  F  F  F </v>
   <v type="logical" >  T  T  T </v>
   <v type="logical" >  F  F  F </v>
   <v type="logical" >  T  T  T </v>
   <v type="logical" >  F  F  F </v>
   <v type="logical" >  T  T  T </v>
   <v type="logical" >  F  F  F </v>
   <v type="logical" >  T  T  T </v>
   <v type="logical" >  F  F  F </v>
   <v type="logical" >  T  T  T </v>
   <v type="logical" >  F  F  F </v>
   <v type="logical" >  T  T  T </v>
   <v type="logical" >  F  F  F </v>
   <v type="logical" >  T  T  T </v>
   <v type="logical" >  F  F  F </v>
   <v type="logical" >  T  T  T </v>
   <v type="logical" >  T  T  T </v>
   <v type="logical" >  T  T  T </v>
   <v type="logical" >  T  T  T </v>
   <v type="logical" >  T  T  T </v>
   <v type="logical" >  T  T  T </v>
   <v type="logical" >  T  T  T </v>
   <v type="logical" >  T  T  T </v>
   <v type="logical" >  T  T  T </v>
   <v type="logical" >  T  T  T </v>
   <v type="logical" >  T  T  T </v>
   <v type="logical" >  T  T  T </v>
   <v type="logical" >  T  T  T </v>
   <v type="logical" >  T  T  T </v>
   <v type="logical" >  T  T  T </v>
   <v type="logical" >  T  T  T </v>
   <v type="logical" >  T  T  T </v>
   <v type="logical" >  T  T  T </v>
   <v type="logical" >  T  T  T </v>
  </varray>
  <nose>
   <v>      -3.00000000       0.00000000       0.00010000       0.00010000 </v>
  </nose>
 </structure>
 <calculation>
  <scstep>
   <time name="diag">    2.71    2.71</time>
   <time name="diis">    2.21    2.21</time>
   <time name="orth">    0.99    0.99</time>
   <time name="total">   16.11   16.30</time>
   <dipole>
    <v name="dipole">      0.00000000       0.00000000      -0.00030961 </v>
    <i name="Tr[quadrupol]">  -1880.71588726 </i>
    <i name="Echarged">      0.00000000 </i>
    <i name="Edipol_quadrupol">      0.00000000 </i>
    <i name="Eion">      0.00000000 </i>
   </dipole>
   <energy>
    <i name="alphaZ">     63.16239662 </i>
    <i name="ewald">  13043.32843173 </i>
    <i name="hartreedc"> -16267.31523844 </i>
    <i name="XCdc">  -2050.88602571 </i>
    <i name="pawpsdc">   5135.15659847 </i>
    <i name="pawaedc">  -2719.01140655 </i>
    <i name="eentropy">      0.00000000 </i>
    <i name="bandstr">    212.75748365 </i>
    <i name="atom">   3827.98814510 </i>
    <i name="e_fr_energy">   1245.18038488 </i>
    <i name="e_wo_entrp">   1245.18038488 </i>
    <i name="e_0_energy">   1245.18038488 </i>
   </energy>
  </scstep>
  <scstep>
   <time name="diag">    2.48    2.50</time>
   <time name="diis">    1.32    1.32</time>
   <time name="orth">    0.44    0.44</time>
   <time name="total">    4.25    4.27</time>
   <dipole>
    <v name="dipole">      0.00000000       0.00000000      -0.00030961 </v>
    <i name="Tr[quadrupol]">  -1880.71588726 </i>
    <i name="Echarged">      0.00000000 </i>
    <i name="Edipol_quadrupol">      0.00000000 </i>
    <i name="Eion">      0.00000000 </i>
   </dipole>
   <energy>
    <i name="e_fr_energy">    546.91202211 </i>
    <i name="e_wo_entrp">    546.91202211 </i>
    <i name="e_0_energy">    546.91202211 </i>
   </energy>
  </scstep>
  <scstep>
   <time name="diag">    1.26    1.29</time>
   <time name="diis">    1.34    1.34</time>
   <time name="orth">    0.51    0.51</time>
   <time name="total">    3.12    3.14</time>
   <dipole>
    <v name="dipole">      0.00000000       0.00000000      -0.00030961 </v>
    <i name="Tr[quadrupol]">  -1880.71588726 </i>
    <i name="Echarged">      0.00000000 </i>
    <i name="Edipol_quadrupol">      0.00000000 </i>
    <i name="Eion">      0.00000000 </i>
   </dipole>
   <energy>
    <i name="e_fr_energy">    310.94017226 </i>
    <i name="e_wo_entrp">    310.94017226 </i>
    <i name="e_0_energy">    310.94017226 </i>
   </energy>
  </scstep>
  <scstep>
   <time name="diag">    1.59    1.62</time>
   <time name="diis">    1.49    1.49</time>
   <time name="orth">    0.46    0.46</time>
   <time name="total">    3.55    3.57</time>
   <dipole>
    <v name="dipole">      0.00000000       0.00000000      -0.00030961 </v>
    <i name="Tr[quadrupol]">  -1880.71588726 </i>
    <i name="Echarged">      0.00000000 </i>
    <i name="Edipol_quadrupol">      0.00000000 </i>
    <i name="Eion">      0.00000000 </i>
   </dipole>
   <energy>
    <i name="e_fr_energy">    137.24407692 </i>
    <i name="e_wo_entrp">    137.24407692 </i>
    <i name="e_0_energy">    137.24407692 </i>
   </energy>
  </scstep>
  <scstep>
   <time name="diag">    1.41    1.43</time>
   <time name="diis">    1.42    1.42</time>
   <time name="orth">    0.45    0.45</time>
   <time name="total">    3.28    3.30</time>
   <dipole>
    <v name="dipole">      0.00000000       0.00000000      -0.00030961 </v>
    <i name="Tr[quadrupol]">  -1880.71588726 </i>
    <i name="Echarged">      0.00000000 </i>
    <i name="Edipol_quadrupol">      0.00000000 </i>
    <i name="Eion">      0.00000000 </i>
   </dipole>
   <energy>
    <i name="e_fr_energy">     20.13610275 </i>
    <i name="e_wo_entrp">     20.13610275 </i>
    <i name="e_0_energy">     20.13610275 </i>
   </energy>
  </scstep>
  <scstep>
   <time name="diag">    1.42    1.44</time>
   <time name="diis">    1.39    1.39</time>
   <time name="orth">    0.39    0.39</time>
   <time name="total">    3.20    3.22</time>
   <dipole>
    <v name="dipole">      0.00000000       0.00000000      -0.00030961 </v>
    <i name="Tr[quadrupol]">  -1880.71588726 </i>
    <i name="Echarged">      0.00000000 </i>
    <i name="Edipol_quadrupol">      0.00000000 </i>
    <i name="Eion">      0.00000000 </i>
   </dipole>
   <energy>
    <i name="e_fr_energy">    -43.97765064 </i>
    <i name="e_wo_entrp">    -43.97765064 </i>
    <i name="e_0_energy">    -43.97765064 </i>
   </energy>
  </scstep>
  <scstep>
   <time name="diag">    1.65    1.67</time>
   <time name="diis">    1.98    1.98</time>
   <time name="orth">    1.01    1.01</time>
   <time name="total">    4.65    4.67</time>
   <dipole>
    <v name="dipole">      0.00000000       0.00000000      -0.00030961 </v>
    <i name="Tr[quadrupol]">  -1880.71588726 </i>
    <i name="Echarged">      0.00000000 </i>
    <i name="Edipol_quadrupol">      0.00000000 </i>
    <i name="Eion">      0.00000000 </i>
   </dipole>
   <energy>
    <i name="e_fr_energy">    -70.98478339 </i>
    <i name="e_wo_entrp">    -70.98478339 </i>
    <i name="e_0_energy">    -70.98478339 </i>
   </energy>
  </scstep>
  <scstep>
   <time name="diag">    2.66    2.69</time>
   <time name="diis">    2.21    2.21</time>
   <time name="orth">    1.00    1.00</time>
   <time name="total">    5.88    5.90</time>
   <dipole>
    <v name="dipole">      0.00000000       0.00000000      -0.00030961 </v>
    <i name="Tr[quadrupol]">  -1880.71588726 </i>
    <i name="Echarged">      0.00000000 </i>
    <i name="Edipol_quadrupol">      0.00000000 </i>
    <i name="Eion">      0.00000000 </i>
   </dipole>
   <energy>
    <i name="e_fr_energy">    -78.16326337 </i>
    <i name="e_wo_entrp">    -78.16326337 </i>
    <i name="e_0_energy">    -78.16326337 </i>
   </energy>
  </scstep>
  <scstep>
   <time name="diag">    2.71    2.73</time>
   <time name="diis">    5.02    5.02</time>
   <time name="orth">    1.02    1.02</time>
   <time name="total">    8.75    8.77</time>
   <dipole>
    <v name="dipole">      0.00000000       0.00000000      -0.00030961 </v>
    <i name="Tr[quadrupol]">  -1880.71588726 </i>
    <i name="Echarged">      0.00000000 </i>
    <i name="Edipol_quadrupol">      0.00000000 </i>
    <i name="Eion">      0.00000000 </i>
   </dipole>
   <energy>
    <i name="e_fr_energy">    -80.42502290 </i>
    <i name="e_wo_entrp">    -80.42502290 </i>
    <i name="e_0_energy">    -80.42502290 </i>
   </energy>
  </scstep>
  <scstep>
   <time name="diag">    2.72    2.75</time>
   <time name="diis">    5.96    5.96</time>
   <time name="orth">    0.99    0.99</time>
   <time name="total">    9.67    9.70</time>
   <dipole>
    <v name="dipole">      0.00000000       0.00000000      -0.00030961 </v>
    <i name="Tr[quadrupol]">  -1880.71588726 </i>
    <i name="Echarged">      0.00000000 </i>
    <i name="Edipol_quadrupol">      0.00000000 </i>
    <i name="Eion">      0.00000000 </i>
   </dipole>
   <energy>
    <i name="e_fr_energy">    -80.73966342 </i>
    <i name="e_wo_entrp">    -80.73966342 </i>
    <i name="e_0_energy">    -80.73966342 </i>
   </energy>
  </scstep>
  <scstep>
   <time name="diag">    2.70    2.72</time>
   <time name="diis">    5.94    5.95</time>
   <time name="orth">    1.00    1.00</time>
   <time name="total">    9.65    9.67</time>
   <dipole>
    <v name="dipole">      0.00000000       0.00000000      -0.00030961 </v>
    <i name="Tr[quadrupol]">  -1880.71588726 </i>
    <i name="Echarged">      0.00000000 </i>
    <i name="Edipol_quadrupol">      0.00000000 </i>
    <i name="Eion">      0.00000000 </i>
   </dipole>
   <energy>
    <i name="e_fr_energy">    -80.73859697 </i>
    <i name="e_wo_entrp">    -80.73859697 </i>
    <i name="e_0_energy">    -80.73859697 </i>
   </energy>
  </scstep>
  <scstep>
   <time name="diag">    2.68    2.70</time>
   <time name="diis">    4.55    4.56</time>
   <time name="orth">    0.35    0.35</time>
   <time name="total">    7.84    7.86</time>
   <dipole>
    <v name="dipole">      0.00000000       0.00000000      -0.00030961 </v>
    <i name="Tr[quadrupol]">  -1880.71588726 </i>
    <i name="Echarged">      0.00000000 </i>
    <i name="Edipol_quadrupol">      0.00000000 </i>
    <i name="Eion">      0.00000000 </i>
   </dipole>
   <energy>
    <i name="e_fr_energy">    -80.74111903 </i>
    <i name="e_wo_entrp">    -80.74111903 </i>
    <i name="e_0_energy">    -80.74111903 </i>
   </energy>
  </scstep>
  <scstep>
   <time name="diag">    1.39    1.39</time>
   <time name="diis">    3.31    3.31</time>
   <time name="orth">    0.36    0.36</time>
   <time name="total">   12.52   12.54</time>
   <dipole>
    <v name="dipole">      0.00000000       0.00000000       0.39325418 </v>
    <i name="Tr[quadrupol]">  -1892.58375331 </i>
    <i name="Echarged">      0.00000000 </i>
    <i name="Edipol_quadrupol">      0.00000000 </i>
    <i name="Eion">      0.00000000 </i>
   </dipole>
   <energy>
    <i name="e_fr_energy">    -70.47836564 </i>
    <i name="e_wo_entrp">    -70.47836564 </i>
    <i name="e_0_energy">    -70.47836564 </i>
   </energy>
  </scstep>
  <scstep>
   <time name="diag">    2.69    2.69</time>
   <time name="diis">    5.75    5.75</time>
   <time name="orth">    1.08    1.08</time>
   <time name="total">   18.34   18.37</time>
   <dipole>
    <v name="dipole">      0.00000000       0.00000000      -1.79393437 </v>
    <i name="Tr[quadrupol]">  -1880.21444614 </i>
    <i name="Echarged">      0.00000000 </i>
    <i name="Edipol_quadrupol">      0.00000000 </i>
    <i name="Eion">      0.00000000 </i>
   </dipole>
   <energy>
    <i name="e_fr_energy">    -87.73482818 </i>
    <i name="e_wo_entrp">    -87.73482818 </i>
    <i name="e_0_energy">    -87.73482818 </i>
   </energy>
  </scstep>
  <scstep>
   <time name="diag">    2.68    2.68</time>
   <time name="diis">    4.96    4.96</time>
   <time name="orth">    1.07    1.07</time>
   <time name="total">   18.97   18.99</time>
   <dipole>
    <v name="dipole">      0.00000000       0.00000000       0.05644937 </v>
    <i name="Tr[quadrupol]">  -1891.28129621 </i>
    <i name="Echarged">      0.00000000 </i>
    <i name="Edipol_quadrupol">      0.00000000 </i>
    <i name="Eion">      0.00000000 </i>
   </dipole>
   <energy>
    <i name="e_fr_energy">    -69.52933686 </i>
    <i name="e_wo_entrp">    -69.52933686 </i>
    <i name="e_0_energy">    -69.52933686 </i>
   </energy>
  </scstep>
  <scstep>
   <time name="diag">    1.26    1.26</time>
   <time name="diis">    3.60    3.60</time>
   <time name="orth">    0.51    0.51</time>
   <time name="total">   14.82   14.85</time>
   <dipole>
    <v name="dipole">      0.00000000       0.00000000      -0.14793576 </v>
    <i name="Tr[quadrupol]">  -1895.87217399 </i>
    <i name="Echarged">      0.00000000 </i>
    <i name="Edipol_quadrupol">      0.00000000 </i>
    <i name="Eion">      0.00000000 </i>
   </dipole>
   <energy>
    <i name="e_fr_energy">    -69.30776440 </i>
    <i name="e_wo_entrp">    -69.30776440 </i>
    <i name="e_0_energy">    -69.30776440 </i>
   </energy>
  </scstep>
  <scstep>
   <time name="diag">    1.64    1.64</time>
   <time name="diis">    3.35    3.36</time>
   <time name="orth">    0.47    0.47</time>
   <time name="total">   13.43   13.44</time>
   <dipole>
    <v name="dipole">      0.00000000       0.00000000      -0.35341037 </v>
    <i name="Tr[quadrupol]">  -1894.59047595 </i>
    <i name="Echarged">      0.00000000 </i>
    <i name="Edipol_quadrupol">      0.00000000 </i>
    <i name="Eion">      0.00000000 </i>
   </dipole>
   <energy>
    <i name="e_fr_energy">    -69.11182363 </i>
    <i name="e_wo_entrp">    -69.11182363 </i>
    <i name="e_0_energy">    -69.11182363 </i>
   </energy>
  </scstep>
  <scstep>
   <time name="diag">    2.66    2.66</time>
   <time name="diis">    5.43    5.43</time>
   <time name="orth">    1.07    1.07</time>
   <time name="total">   19.43   19.45</time>
   <dipole>
    <v name="dipole">      0.00000000       0.00000000      -0.40315926 </v>
    <i name="Tr[quadrupol]">  -1895.28463518 </i>
    <i name="Echarged">      0.00000000 </i>
    <i name="Edipol_quadrupol">      0.00000000 </i>
    <i name="Eion">      0.00000000 </i>
   </dipole>
   <energy>
    <i name="e_fr_energy">    -69.09365457 </i>
    <i name="e_wo_entrp">    -69.09365457 </i>
    <i name="e_0_energy">    -69.09365457 </i>
   </energy>
  </scstep>
  <scstep>
   <time name="diag">    2.66    2.66</time>
   <time name="diis">    4.64    4.64</time>
   <time name="orth">    1.01    1.01</time>
   <time name="total">   18.66   18.69</time>
   <dipole>
    <v name="dipole">      0.00000000       0.00000000      -0.45107424 </v>
    <i name="Tr[quadrupol]">  -1896.33564870 </i>
    <i name="Echarged">      0.00000000 </i>
    <i name="Edipol_quadrupol">      0.00000000 </i>
    <i name="Eion">      0.00000000 </i>
   </dipole>
   <energy>
    <i name="e_fr_energy">    -69.09611266 </i>
    <i name="e_wo_entrp">    -69.09611266 </i>
    <i name="e_0_energy">    -69.09611266 </i>
   </energy>
  </scstep>
  <scstep>
   <time name="diag">    1.39    1.39</time>
   <time name="diis">    3.59    3.59</time>
   <time name="orth">    0.46    0.46</time>
   <time name="total">   13.91   13.93</time>
   <dipole>
    <v name="dipole">      0.00000000       0.00000000      -0.45322081 </v>
    <i name="Tr[quadrupol]">  -1896.99687156 </i>
    <i name="Echarged">      0.00000000 </i>
    <i name="Edipol_quadrupol">      0.00000000 </i>
    <i name="Eion">      0.00000000 </i>
   </dipole>
   <energy>
    <i name="e_fr_energy">    -69.09479647 </i>
    <i name="e_wo_entrp">    -69.09479647 </i>
    <i name="e_0_energy">    -69.09479647 </i>
   </energy>
  </scstep>
  <scstep>
   <time name="diag">    2.60    2.60</time>
   <time name="diis">    5.01    5.01</time>
   <time name="orth">    1.01    1.01</time>
   <time name="total">   16.64   16.66</time>
   <dipole>
    <v name="dipole">      0.00000000       0.00000000      -0.45951941 </v>
    <i name="Tr[quadrupol]">  -1897.57042182 </i>
    <i name="Echarged">      0.00000000 </i>
    <i name="Edipol_quadrupol">      0.00000000 </i>
    <i name="Eion">      0.00000000 </i>
   </dipole>
   <energy>
    <i name="e_fr_energy">    -69.09242241 </i>
    <i name="e_wo_entrp">    -69.09242241 </i>
    <i name="e_0_energy">    -69.09242241 </i>
   </energy>
  </scstep>
  <scstep>
   <time name="diag">    2.67    2.67</time>
   <time name="diis">    5.01    5.01</time>
   <time name="orth">    1.00    1.00</time>
   <time name="total">   18.94   18.96</time>
   <dipole>
    <v name="dipole">      0.00000000       0.00000000      -0.45321419 </v>
    <i name="Tr[quadrupol]">  -1897.91234728 </i>
    <i name="Echarged">      0.00000000 </i>
    <i name="Edipol_quadrupol">      0.00000000 </i>
    <i name="Eion">      0.00000000 </i>
   </dipole>
   <energy>
    <i name="e_fr_energy">    -69.08647233 </i>
    <i name="e_wo_entrp">    -69.08647233 </i>
    <i name="e_0_energy">    -69.08647233 </i>
   </energy>
  </scstep>
  <scstep>
   <time name="diag">    2.46    2.46</time>
   <time name="diis">    2.76    2.76</time>
   <time name="orth">    0.35    0.35</time>
   <time name="total">   15.68   15.70</time>
   <dipole>
    <v name="dipole">      0.00000000       0.00000000      -0.44726899 </v>
    <i name="Tr[quadrupol]">  -1898.13841776 </i>
    <i name="Echarged">      0.00000000 </i>
    <i name="Edipol_quadrupol">      0.00000000 </i>
    <i name="Eion">      0.00000000 </i>
   </dipole>
   <energy>
    <i name="e_fr_energy">    -69.08226702 </i>
    <i name="e_wo_entrp">    -69.08226702 </i>
    <i name="e_0_energy">    -69.08226702 </i>
   </energy>
  </scstep>
  <scstep>
   <time name="diag">    1.40    1.40</time>
   <time name="diis">    2.60    2.60</time>
   <time name="orth">    0.84    0.84</time>
   <time name="total">   12.64   12.67</time>
   <dipole>
    <v name="dipole">      0.00000000       0.00000000      -0.43566132 </v>
    <i name="Tr[quadrupol]">  -1898.34859038 </i>
    <i name="Echarged">      0.00000000 </i>
    <i name="Edipol_quadrupol">      0.00000000 </i>
    <i name="Eion">      0.00000000 </i>
   </dipole>
   <energy>
    <i name="e_fr_energy">    -69.08341061 </i>
    <i name="e_wo_entrp">    -69.08341061 </i>
    <i name="e_0_energy">    -69.08341061 </i>
   </energy>
  </scstep>
  <scstep>
   <time name="diag">    2.67    2.67</time>
   <time name="diis">    3.93    3.93</time>
   <time name="orth">    1.01    1.01</time>
   <time name="total">   17.40   17.42</time>
   <dipole>
    <v name="dipole">      0.00000000       0.00000000      -0.43098197 </v>
    <i name="Tr[quadrupol]">  -1898.42271749 </i>
    <i name="Echarged">      0.00000000 </i>
    <i name="Edipol_quadrupol">      0.00000000 </i>
    <i name="Eion">      0.00000000 </i>
   </dipole>
   <energy>
    <i name="e_fr_energy">    -69.08396818 </i>
    <i name="e_wo_entrp">    -69.08396818 </i>
    <i name="e_0_energy">    -69.08396818 </i>
   </energy>
  </scstep>
  <scstep>
   <time name="diag">    2.70    2.70</time>
   <time name="diis">    3.89    3.89</time>
   <time name="orth">    0.99    0.99</time>
   <time name="total">   17.87   17.89</time>
   <dipole>
    <v name="dipole">      0.00000000       0.00000000      -0.42465860 </v>
    <i name="Tr[quadrupol]">  -1898.49009617 </i>
    <i name="Echarged">      0.00000000 </i>
    <i name="Edipol_quadrupol">      0.00000000 </i>
    <i name="Eion">      0.00000000 </i>
   </dipole>
   <energy>
    <i name="e_fr_energy">    -69.08381913 </i>
    <i name="e_wo_entrp">    -69.08381913 </i>
    <i name="e_0_energy">    -69.08381913 </i>
   </energy>
  </scstep>
  <scstep>
   <time name="diag">    1.18    1.18</time>
   <time name="diis">    2.44    2.44</time>
   <time name="orth">    0.47    0.47</time>
   <time name="total">   13.50   13.52</time>
   <dipole>
    <v name="dipole">      0.00000000       0.00000000      -0.42240869 </v>
    <i name="Tr[quadrupol]">  -1898.49415082 </i>
    <i name="Echarged">      0.00000000 </i>
    <i name="Edipol_quadrupol">      0.00000000 </i>
    <i name="Eion">      0.00000000 </i>
   </dipole>
   <energy>
    <i name="e_fr_energy">    -69.08373182 </i>
    <i name="e_wo_entrp">    -69.08373182 </i>
    <i name="e_0_energy">    -69.08373182 </i>
   </energy>
  </scstep>
  <scstep>
   <time name="diag">    1.39    1.39</time>
   <time name="diis">    2.02    2.02</time>
   <time name="orth">    0.38    0.38</time>
   <time name="total">   11.43   11.45</time>
   <dipole>
    <v name="dipole">      0.00000000       0.00000000      -0.42080996 </v>
    <i name="Tr[quadrupol]">  -1898.48909042 </i>
    <i name="Echarged">      0.00000000 </i>
    <i name="Edipol_quadrupol">      0.00000000 </i>
    <i name="Eion">      0.00000000 </i>
   </dipole>
   <energy>
    <i name="e_fr_energy">    -69.08372460 </i>
    <i name="e_wo_entrp">    -69.08372460 </i>
    <i name="e_0_energy">    -69.08372460 </i>
   </energy>
  </scstep>
  <scstep>
   <time name="diag">    1.20    1.21</time>
   <time name="diis">    2.00    2.00</time>
   <time name="orth">    0.39    0.39</time>
   <time name="total">   11.18   11.20</time>
   <dipole>
    <v name="dipole">      0.00000000       0.00000000      -0.42039195 </v>
    <i name="Tr[quadrupol]">  -1898.37514600 </i>
    <i name="Echarged">      0.00000000 </i>
    <i name="Edipol_quadrupol">      0.00000000 </i>
    <i name="Eion">      0.00000000 </i>
   </dipole>
   <energy>
    <i name="e_fr_energy">    -69.08373163 </i>
    <i name="e_wo_entrp">    -69.08373163 </i>
    <i name="e_0_energy">    -69.08373163 </i>
   </energy>
  </scstep>
  <scstep>
   <time name="diag">    1.31    1.31</time>
   <time name="diis">    2.14    2.14</time>
   <time name="orth">    0.40    0.40</time>
   <time name="total">   11.26   11.28</time>
   <dipole>
    <v name="dipole">      0.00000000       0.00000000      -0.42015893 </v>
    <i name="Tr[quadrupol]">  -1898.92197830 </i>
    <i name="Echarged">      0.00000000 </i>
    <i name="Edipol_quadrupol">      0.00000000 </i>
    <i name="Eion">      0.00000000 </i>
   </dipole>
   <energy>
    <i name="e_fr_energy">    -69.08375870 </i>
    <i name="e_wo_entrp">    -69.08375870 </i>
    <i name="e_0_energy">    -69.08375870 </i>
   </energy>
  </scstep>
  <scstep>
   <time name="diag">    2.69    2.69</time>
   <time name="diis">    3.10    3.10</time>
   <time name="orth">    0.99    0.99</time>
   <time name="total">   15.20   15.23</time>
   <dipole>
    <v name="dipole">      0.00000000       0.00000000      -0.42062047 </v>
    <i name="Tr[quadrupol]">  -1899.08345135 </i>
    <i name="Echarged">      0.00000000 </i>
    <i name="Edipol_quadrupol">      0.00000000 </i>
    <i name="Eion">      0.00000000 </i>
   </dipole>
   <energy>
    <i name="e_fr_energy">    -69.08379327 </i>
    <i name="e_wo_entrp">    -69.08379327 </i>
    <i name="e_0_energy">    -69.08379327 </i>
   </energy>
  </scstep>
  <scstep>
   <time name="diag">    2.69    2.69</time>
   <time name="diis">    2.90    2.90</time>
   <time name="orth">    1.05    1.05</time>
   <time name="total">   17.03   17.06</time>
   <dipole>
    <v name="dipole">      0.00000000       0.00000000      -0.42089944 </v>
    <i name="Tr[quadrupol]">  -1899.08374916 </i>
    <i name="Echarged">      0.00000000 </i>
    <i name="Edipol_quadrupol">      0.00000000 </i>
    <i name="Eion">      0.00000000 </i>
   </dipole>
   <energy>
    <i name="e_fr_energy">    -69.08380536 </i>
    <i name="e_wo_entrp">    -69.08380536 </i>
    <i name="e_0_energy">    -69.08380536 </i>
   </energy>
  </scstep>
  <scstep>
   <time name="diag">    2.52    2.52</time>
   <time name="diis">    3.39    3.39</time>
   <time name="orth">    1.00    1.00</time>
   <time name="total">   17.28   17.31</time>
   <dipole>
    <v name="dipole">      0.00000000       0.00000000      -0.42131635 </v>
    <i name="Tr[quadrupol]">  -1899.08438051 </i>
    <i name="Echarged">      0.00000000 </i>
    <i name="Edipol_quadrupol">      0.00000000 </i>
    <i name="Eion">      0.00000000 </i>
   </dipole>
   <energy>
    <i name="e_fr_energy">    -69.08377530 </i>
    <i name="e_wo_entrp">    -69.08377530 </i>
    <i name="e_0_energy">    -69.08377530 </i>
   </energy>
  </scstep>
  <scstep>
   <time name="diag">    2.68    2.68</time>
   <time name="diis">    3.49    3.49</time>
   <time name="orth">    1.01    1.01</time>
   <time name="total">   17.01   17.04</time>
   <dipole>
    <v name="dipole">      0.00000000       0.00000000      -0.42148538 </v>
    <i name="Tr[quadrupol]">  -1899.08495250 </i>
    <i name="Echarged">      0.00000000 </i>
    <i name="Edipol_quadrupol">      0.00000000 </i>
    <i name="Eion">      0.00000000 </i>
   </dipole>
   <energy>
    <i name="alphaZ">     64.97016120 </i>
    <i name="ewald">  13043.32843173 </i>
    <i name="hartreedc"> -16509.52497048 </i>
    <i name="XCdc">  -2034.59454897 </i>
    <i name="pawpsdc">   5967.26246083 </i>
    <i name="pawaedc">  -3553.54112051 </i>
    <i name="eentropy">      0.00000000 </i>
    <i name="bandstr">   -874.97233911 </i>
    <i name="atom">   3827.98814510 </i>
    <i name="e_fr_energy">    -69.08378019 </i>
    <i name="e_wo_entrp">    -69.08378019 </i>
    <i name="e_0_energy">    -69.08378019 </i>
   </energy>
  </scstep>
  <structure>
   <crystal>
    <varray name="basis" >
     <v>       9.55575275       0.00000000       0.00000000 </v>
     <v>      -4.77787638       8.27552464       0.00000000 </v>
     <v>       0.00000000       0.00000000      32.62509537 </v>
    </varray>
    <i name="volume">   2579.95558872 </i>
    <varray name="rec_basis" >
     <v>       0.10464900       0.06041913       0.00000000 </v>
     <v>       0.00000000       0.12083826       0.00000000 </v>
     <v>       0.00000000       0.00000000       0.03065125 </v>
    </varray>
   </crystal>
   <varray name="positions" >
    <v>       0.00000000       0.00000000       0.00000000 </v>
    <v>       0.99916625       0.00166925       0.15818015 </v>
    <v>       0.00142889       0.00912822       0.33036434 </v>
    <v>       0.00000001       0.33333336       0.00000000 </v>
    <v>       0.00027871       0.33533101       0.15755356 </v>
    <v>       0.99005441       0.34326623       0.31241524 </v>
    <v>       0.00000002       0.66666672       0.00000000 </v>
    <v>       0.00026601       0.66925150       0.15783558 </v>
    <v>       0.01790492       0.68699766       0.31180978 </v>
    <v>       0.33333334       0.00000000       0.00000000 </v>
    <v>       0.33437440       0.00176957       0.15719502 </v>
    <v>       0.33660635       0.01698398       0.30926939 </v>
    <v>       0.33333335       0.33333336       0.00000000 </v>
    <v>       0.33158660       0.33305345       0.15710588 </v>
    <v>       0.31776000       0.33248991       0.31209131 </v>
    <v>       0.33333336       0.66666672       0.00000000 </v>
    <v>       0.33336394       0.66990631       0.15784323 </v>
    <v>       0.32633228       0.68428937       0.33015115 </v>
    <v>       0.66666668       0.00000000       0.00000000 </v>
    <v>       0.66602062       0.00006480       0.15782082 </v>
    <v>       0.67187131       0.01439942       0.31412741 </v>
    <v>       0.66666668       0.33333336       0.00000000 </v>
    <v>       0.66709864       0.33660783       0.15862254 </v>
    <v>       0.66485862       0.34383603       0.33367962 </v>
    <v>       0.66666670       0.66666672       0.00000000 </v>
    <v>       0.66975738       0.66914132       0.15788461 </v>
    <v>       0.66018559       0.67796550       0.31910494 </v>
    <v>       0.11111113       0.22222222       0.07982145 </v>
    <v>       0.10547771       0.22241713       0.23654183 </v>
    <v>       0.11111114       0.55555561       0.07982145 </v>
    <v>       0.11722496       0.56021111       0.23616050 </v>
    <v>       0.11111116       0.88888894       0.07982145 </v>
    <v>       0.11161990       0.89634460       0.23466749 </v>
    <v>       0.44444450       0.22222222       0.07982145 </v>
    <v>       0.44960527       0.23424895       0.23608770 </v>
    <v>       0.44444450       0.55555561       0.07982145 </v>
    <v>       0.44781845       0.55955779       0.23377143 </v>
    <v>       0.44444451       0.88888894       0.07982145 </v>
    <v>       0.44356651       0.88706256       0.23730058 </v>
    <v>       0.77777779       0.22222222       0.07982145 </v>
    <v>       0.77401219       0.22479797       0.23543733 </v>
    <v>       0.77777781       0.55555561       0.07982145 </v>
    <v>       0.77741897       0.55692080       0.23915734 </v>
    <v>       0.77777784       0.88888894       0.07982145 </v>
    <v>       0.77948389       0.88934842       0.23926703 </v>
    <v>       0.00203203       0.00137415       0.39622778 </v>
    <v>       0.29417343       0.96530279       0.41262016 </v>
    <v>       0.88340632       0.22096222       0.41600991 </v>
    <v>       0.60376974       0.26961493       0.40052225 </v>
    <v>       0.69240033       0.55111978       0.36393538 </v>
    <v>       0.35356552       0.70874957       0.39531445 </v>
    <v>       0.96929530       0.07155865       0.41059734 </v>
    <v>       0.09515656       0.00632632       0.41052369 </v>
    <v>       0.39471219       0.07122600       0.41065342 </v>
    <v>       0.25640763       0.94047348       0.38364849 </v>
    <v>       0.98141515       0.32714115       0.41818794 </v>
    <v>       0.86442766       0.20769401       0.38562843 </v>
    <v>       0.62157082       0.38101462       0.40293278 </v>
    <v>       0.69482670       0.26690270       0.41403793 </v>
    <v>       0.79041779       0.62463840       0.37920068 </v>
    <v>       0.42790883       0.55488759       0.33052485 </v>
    <v>       0.34534603       0.80069619       0.40701587 </v>
    <v>       0.45312549       0.71677385       0.40580413 </v>
   </varray>
  </structure>
  <varray name="forces" >
   <v>       0.01380881      -0.02290532       0.00309262 </v>
   <v>       0.01608572      -0.00086327       0.00450818 </v>
   <v>      -0.00135502      -0.00877304      -0.00844057 </v>
   <v>      -0.04783852      -0.01145988      -0.02926957 </v>
   <v>      -0.00107271       0.00564465      -0.00965221 </v>
   <v>      -0.01686998       0.00228885       0.02025003 </v>
   <v>       0.02556122       0.03034172      -0.01916528 </v>
   <v>      -0.00326491       0.01489303      -0.00369271 </v>
   <v>       0.01459614       0.02988754      -0.01076839 </v>
   <v>      -0.01781244      -0.02109651      -0.01878575 </v>
   <v>      -0.01341840      -0.00403074       0.00034747 </v>
   <v>      -0.02258715       0.00540395      -0.00332902 </v>
   <v>       0.01172356       0.00023404      -0.02214839 </v>
   <v>       0.00840954      -0.01492570      -0.01812763 </v>
   <v>       0.00835526       0.00975570       0.00332422 </v>
   <v>      -0.02070657       0.00120330      -0.01933671 </v>
   <v>      -0.01435885       0.01445494       0.00018728 </v>
   <v>      -0.00643420      -0.00029250      -0.00223592 </v>
   <v>       0.00637996       0.04777725      -0.02399009 </v>
   <v>      -0.00318701      -0.00556518      -0.00125060 </v>
   <v>       0.01216871       0.01258809       0.01877100 </v>
   <v>       0.04249777      -0.03617112      -0.02055348 </v>
   <v>      -0.00043686       0.01727764      -0.00718179 </v>
   <v>      -0.00394801       0.00586598       0.02817347 </v>
   <v>      -0.01225187       0.01470077      -0.05287948 </v>
   <v>       0.01438301      -0.00008474      -0.01543707 </v>
   <v>      -0.01557168       0.02008945      -0.00910283 </v>
   <v>       0.00841567      -0.00282760       0.02055794 </v>
   <v>       0.00108898      -0.01112226       0.00510811 </v>
   <v>       0.01260857       0.02119195       0.02723572 </v>
   <v>      -0.00037391       0.01409923       0.00549476 </v>
   <v>      -0.01804611       0.00263857      -0.03229483 </v>
   <v>       0.00298228       0.01338109       0.01899878 </v>
   <v>      -0.01027117       0.02751199       0.03917221 </v>
   <v>      -0.00699873       0.00788823      -0.00040149 </v>
   <v>       0.00336705       0.00157142       0.01195323 </v>
   <v>       0.00008849       0.00993421       0.00461687 </v>
   <v>      -0.00166729      -0.01787832       0.02547762 </v>
   <v>      -0.00846594      -0.00545390       0.00044395 </v>
   <v>      -0.00671883       0.01518435      -0.00663699 </v>
   <v>      -0.00020267       0.00662944       0.00277038 </v>
   <v>      -0.00533091       0.00421573       0.07738210 </v>
   <v>       0.00994668       0.00136314      -0.02122680 </v>
   <v>       0.01151956      -0.00551904       0.03532488 </v>
   <v>      -0.00012002       0.01187409      -0.00277752 </v>
   <v>      -0.00226857       0.00389799       0.00911218 </v>
   <v>      -0.00541023      -0.00704972       0.02956752 </v>
   <v>      -0.01249295       0.00374864       0.03455784 </v>
   <v>       0.01394353      -0.04609487       0.05127366 </v>
   <v>       0.01901736      -0.05803996      -0.07220053 </v>
   <v>      -0.01982377      -0.00176651       0.01520680 </v>
   <v>      -0.00448932       0.00358028      -0.00258082 </v>
   <v>       0.00258900      -0.00182349      -0.00672287 </v>
   <v>      -0.00060346      -0.01237173       0.00335784 </v>
   <v>      -0.01649906      -0.00852448      -0.01563488 </v>
   <v>      -0.01041080       0.00697656      -0.00795162 </v>
   <v>       0.00268630       0.00410596      -0.02570013 </v>
   <v>       0.00838435      -0.04111570       0.04146746 </v>
   <v>       0.02905616      -0.03256271       0.01025314 </v>
   <v>       0.06063690      -0.03664062      -0.06282457 </v>
   <v>      -0.00048560       0.00096679       0.00972781 </v>
   <v>      -0.02432272      -0.00007661      -0.00345287 </v>
   <v>      -0.00418436       0.02186897      -0.00196171 </v>
  </varray>
  <varray name="stress" >
   <v>      -4.91635911       0.66513470       0.03015243 </v>
   <v>       0.66513453      -5.06890527      -0.70601087 </v>
   <v>       0.03015227      -0.70601095       0.37810522 </v>
  </varray>
  <energy>
   <i name="e_fr_energy">    -69.08378019 </i>
   <i name="e_wo_entrp">    -69.08378019 </i>
   <i name="e_0_energy">      0.00000000 </i>
  </energy>
  <time name="totalsc">  460.20  461.65</time>
  <eigenvalues>
   <array>
    <dimension dim="1">band</dimension>
    <dimension dim="2">kpoint</dimension>
    <dimension dim="3">spin</dimension>
    <field>eigene</field>
    <field>occ</field>
    <set>
     <set comment="spin 1">
      <set comment="kpoint 1">
       <r>  -23.8805    1.0000 </r>
       <r>  -23.8207    1.0000 </r>
       <r>  -23.6891    1.0000 </r>
       <r>  -23.4409    1.0000 </r>
       <r>  -23.1770    1.0000 </r>
       <r>  -21.4158    1.0000 </r>
       <r>  -11.8715    1.0000 </r>
       <r>  -11.8366    1.0000 </r>
       <r>  -11.8020    1.0000 </r>
       <r>  -11.1880    1.0000 </r>
       <r>  -10.9434    1.0000 </r>
       <r>   -9.1103    1.0000 </r>
       <r>   -8.7781    1.0000 </r>
       <r>   -8.6334    1.0000 </r>
       <r>   -8.4252    1.0000 </r>
       <r>   -7.9635    1.0000 </r>
       <r>   -7.5163    1.0000 </r>
       <r>   -7.4161    1.0000 </r>
       <r>   -7.0146    1.0000 </r>
       <r>   -6.8689    1.0000 </r>
       <r>   -6.5678    1.0000 </r>
       <r>   -6.3195    1.0000 </r>
       <r>   -6.2689    1.0000 </r>
       <r>   -5.9089    1.0000 </r>
       <r>   -5.8148    1.0000 </r>
       <r>   -5.7506    1.0000 </r>
       <r>   -5.5859    1.0000 </r>
       <r>   -5.3829    1.0000 </r>
       <r>   -5.2449    1.0000 </r>
       <r>   -5.2303    1.0000 </r>
       <r>   -5.2254    1.0000 </r>
       <r>   -5.1935    1.0000 </r>
       <r>   -5.1661    1.0000 </r>
       <r>   -5.1450    1.0000 </r>
       <r>   -4.7135    1.0000 </r>
       <r>   -4.7053    1.0000 </r>
       <r>   -4.6737    1.0000 </r>
       <r>   -4.6547    1.0000 </r>
       <r>   -4.5643    1.0000 </r>
       <r>   -4.4889    1.0000 </r>
       <r>   -4.2926    1.0000 </r>
       <r>   -3.8394    1.0000 </r>
       <r>   -3.7949    1.0000 </r>
       <r>   -3.7889    1.0000 </r>
       <r>   -3.6711    1.0000 </r>
       <r>   -3.5367    1.0000 </r>
       <r>   -3.3266    1.0000 </r>
       <r>   -3.0424    1.0000 </r>
       <r>   -2.6937    1.0000 </r>
       <r>   -2.6343    1.0000 </r>
       <r>   -2.6224    1.0000 </r>
       <r>   -2.5441    1.0000 </r>
       <r>   -2.3354    1.0000 </r>
       <r>   -1.9003    1.0000 </r>
       <r>   -1.6429    1.0000 </r>
       <r>   -1.2858    1.0000 </r>
       <r>   -1.1733    1.0000 </r>
       <r>   -1.1388    1.0000 </r>
       <r>   -1.1097    1.0000 </r>
       <r>   -1.0777    1.0000 </r>
       <r>   -1.0615    1.0000 </r>
       <r>   -1.0538    1.0000 </r>
       <r>   -1.0224    1.0000 </r>
       <r>   -1.0120    1.0000 </r>
       <r>   -1.0070    1.0000 </r>
       <r>   -0.8917    1.0000 </r>
       <r>   -0.7396    1.0000 </r>
       <r>   -0.6935    1.0000 </r>
       <r>   -0.6351    0.6638 </r>
       <r>   -0.5003    0.0000 </r>
       <r>   -0.4721    0.0000 </r>
       <r>   -0.3479    0.0000 </r>
       <r>   -0.2647    0.0000 </r>
       <r>   -0.1134    0.0000 </r>
       <r>    0.0013    0.0000 </r>
       <r>    0.1275    0.0000 </r>
       <r>    0.1449    0.0000 </r>
       <r>    0.2322    0.0000 </r>
       <r>    0.2799    0.0000 </r>
       <r>    0.3137    0.0000 </r>
       <r>    0.3673    0.0000 </r>
       <r>    0.4910    0.0000 </r>
       <r>    0.6335    0.0000 </r>
       <r>    0.7970    0.0000 </r>
       <r>    1.0250    0.0000 </r>
       <r>    1.0413    0.0000 </r>
       <r>    1.0415    0.0000 </r>
       <r>    1.0503    0.0000 </r>
       <r>    1.0600    0.0000 </r>
       <r>    1.0812    0.0000 </r>
       <r>    1.1750    0.0000 </r>
       <r>    1.3318    0.0000 </r>
       <r>    1.2123    0.0000 </r>
       <r>    1.2809    0.0000 </r>
       <r>    1.3643    0.0000 </r>
       <r>    1.4310    0.0000 </r>
       <r>    1.5899    0.0000 </r>
       <r>    1.6002    0.0000 </r>
       <r>    1.6082    0.0000 </r>
       <r>    1.6212    0.0000 </r>
       <r>    1.6849    0.0000 </r>
       <r>    1.7494    0.0000 </r>
      </set>
      <set comment="kpoint 2">
       <r>  -23.8761    1.0000 </r>
       <r>  -23.8195    1.0000 </r>
       <r>  -23.7025    1.0000 </r>
       <r>  -23.4290    1.0000 </r>
       <r>  -23.1812    1.0000 </r>
       <r>  -21.4158    1.0000 </r>
       <r>  -11.8699    1.0000 </r>
       <r>  -11.8352    1.0000 </r>
       <r>  -11.8070    1.0000 </r>
       <r>  -11.1731    1.0000 </r>
       <r>  -10.9572    1.0000 </r>
       <r>   -9.1128    1.0000 </r>
       <r>   -8.7732    1.0000 </r>
       <r>   -8.6316    1.0000 </r>
       <r>   -8.4288    1.0000 </r>
       <r>   -7.9553    1.0000 </r>
       <r>   -7.5197    1.0000 </r>
       <r>   -7.1945    1.0000 </r>
       <r>   -6.9615    1.0000 </r>
       <r>   -6.7983    1.0000 </r>
       <r>   -6.5095    1.0000 </r>
       <r>   -6.4286    1.0000 </r>
       <r>   -6.3241    1.0000 </r>
       <r>   -6.2010    1.0000 </r>
       <r>   -5.9164    1.0000 </r>
       <r>   -5.8685    1.0000 </r>
       <r>   -5.7483    1.0000 </r>
       <r>   -5.7243    1.0000 </r>
       <r>   -5.6933    1.0000 </r>
       <r>   -5.5902    1.0000 </r>
       <r>   -5.4895    1.0000 </r>
       <r>   -5.3226    1.0000 </r>
       <r>   -5.0742    1.0000 </r>
       <r>   -5.0159    1.0000 </r>
       <r>   -4.7521    1.0000 </r>
       <r>   -4.4005    1.0000 </r>
       <r>   -4.2753    1.0000 </r>
       <r>   -4.2574    1.0000 </r>
       <r>   -4.1765    1.0000 </r>
       <r>   -3.9960    1.0000 </r>
       <r>   -3.7207    1.0000 </r>
       <r>   -3.6635    1.0000 </r>
       <r>   -3.5669    1.0000 </r>
       <r>   -3.4717    1.0000 </r>
       <r>   -3.0703    1.0000 </r>
       <r>   -3.0321    1.0000 </r>
       <r>   -2.9639    1.0000 </r>
       <r>   -2.9025    1.0000 </r>
       <r>   -2.8611    1.0000 </r>
       <r>   -2.8522    1.0000 </r>
       <r>   -2.7423    1.0000 </r>
       <r>   -2.4743    1.0000 </r>
       <r>   -2.3312    1.0000 </r>
       <r>   -2.2585    1.0000 </r>
       <r>   -2.1672    1.0000 </r>
       <r>   -1.9953    1.0000 </r>
       <r>   -1.7006    1.0000 </r>
       <r>   -1.6602    1.0000 </r>
       <r>   -1.5920    1.0000 </r>
       <r>   -1.5288    1.0000 </r>
       <r>   -1.4907    1.0000 </r>
       <r>   -1.4672    1.0000 </r>
       <r>   -1.4087    1.0000 </r>
       <r>   -1.2257    1.0000 </r>
       <r>   -0.9710    1.0000 </r>
       <r>   -0.8509    1.0000 </r>
       <r>   -0.8235    1.0000 </r>
       <r>   -0.7527    1.0000 </r>
       <r>   -0.6189    0.5056 </r>
       <r>   -0.5843    0.0858 </r>
       <r>   -0.5014   -0.0366 </r>
       <r>   -0.3872    0.0000 </r>
       <r>   -0.2359    0.0000 </r>
       <r>   -0.0764    0.0000 </r>
       <r>   -0.0089    0.0000 </r>
       <r>    0.0410    0.0000 </r>
       <r>    0.0852    0.0000 </r>
       <r>    0.1720    0.0000 </r>
       <r>    0.2366    0.0000 </r>
       <r>    0.2899    0.0000 </r>
       <r>    0.4382    0.0000 </r>
       <r>    0.5226    0.0000 </r>
       <r>    0.5571    0.0000 </r>
       <r>    0.6070    0.0000 </r>
       <r>    0.6957    0.0000 </r>
       <r>    0.7802    0.0000 </r>
       <r>    0.8822    0.0000 </r>
       <r>    0.9066    0.0000 </r>
       <r>    1.0151    0.0000 </r>
       <r>    1.0742    0.0000 </r>
       <r>    1.1373    0.0000 </r>
       <r>    1.2489    0.0000 </r>
       <r>    1.3218    0.0000 </r>
       <r>    1.3450    0.0000 </r>
       <r>    1.4025    0.0000 </r>
       <r>    1.4874    0.0000 </r>
       <r>    1.5281    0.0000 </r>
       <r>    1.5506    0.0000 </r>
       <r>    1.7395    0.0000 </r>
       <r>    1.6868    0.0000 </r>
       <r>    1.6914    0.0000 </r>
       <r>    1.9828    0.0000 </r>
      </set>
      <set comment="kpoint 3">
       <r>  -23.8797    1.0000 </r>
       <r>  -23.8213    1.0000 </r>
       <r>  -23.6897    1.0000 </r>
       <r>  -23.4405    1.0000 </r>
       <r>  -23.1770    1.0000 </r>
       <r>  -21.4158    1.0000 </r>
       <r>  -11.8721    1.0000 </r>
       <r>  -11.8368    1.0000 </r>
       <r>  -11.8004    1.0000 </r>
       <r>  -11.1885    1.0000 </r>
       <r>  -10.9436    1.0000 </r>
       <r>   -9.1108    1.0000 </r>
       <r>   -8.7752    1.0000 </r>
       <r>   -8.6278    1.0000 </r>
       <r>   -8.4330    1.0000 </r>
       <r>   -7.9615    1.0000 </r>
       <r>   -7.5175    1.0000 </r>
       <r>   -7.1951    1.0000 </r>
       <r>   -6.9734    1.0000 </r>
       <r>   -6.7766    1.0000 </r>
       <r>   -6.5085    1.0000 </r>
       <r>   -6.4249    1.0000 </r>
       <r>   -6.3035    1.0000 </r>
       <r>   -6.2291    1.0000 </r>
       <r>   -5.9126    1.0000 </r>
       <r>   -5.8449    1.0000 </r>
       <r>   -5.7622    1.0000 </r>
       <r>   -5.7356    1.0000 </r>
       <r>   -5.7052    1.0000 </r>
       <r>   -5.6131    1.0000 </r>
       <r>   -5.5232    1.0000 </r>
       <r>   -5.2628    1.0000 </r>
       <r>   -5.1217    1.0000 </r>
       <r>   -4.9739    1.0000 </r>
       <r>   -4.7450    1.0000 </r>
       <r>   -4.3682    1.0000 </r>
       <r>   -4.2978    1.0000 </r>
       <r>   -4.2559    1.0000 </r>
       <r>   -4.1225    1.0000 </r>
       <r>   -4.0217    1.0000 </r>
       <r>   -3.7520    1.0000 </r>
       <r>   -3.6452    1.0000 </r>
       <r>   -3.5699    1.0000 </r>
       <r>   -3.4543    1.0000 </r>
       <r>   -3.0856    1.0000 </r>
       <r>   -3.0154    1.0000 </r>
       <r>   -2.9587    1.0000 </r>
       <r>   -2.9244    1.0000 </r>
       <r>   -2.8892    1.0000 </r>
       <r>   -2.8488    1.0000 </r>
       <r>   -2.6991    1.0000 </r>
       <r>   -2.5371    1.0000 </r>
       <r>   -2.3411    1.0000 </r>
       <r>   -2.2246    1.0000 </r>
       <r>   -2.2004    1.0000 </r>
       <r>   -1.9601    1.0000 </r>
       <r>   -1.7460    1.0000 </r>
       <r>   -1.6412    1.0000 </r>
       <r>   -1.6273    1.0000 </r>
       <r>   -1.5303    1.0000 </r>
       <r>   -1.5095    1.0000 </r>
       <r>   -1.4584    1.0000 </r>
       <r>   -1.3693    1.0000 </r>
       <r>   -1.2166    1.0000 </r>
       <r>   -0.9429    1.0000 </r>
       <r>   -0.8450    1.0000 </r>
       <r>   -0.8155    1.0000 </r>
       <r>   -0.7465    1.0000 </r>
       <r>   -0.6116    0.4290 </r>
       <r>   -0.5863    0.0940 </r>
       <r>   -0.5396   -0.0289 </r>
       <r>   -0.4110    0.0000 </r>
       <r>   -0.2969    0.0000 </r>
       <r>   -0.0635    0.0000 </r>
       <r>    0.0203    0.0000 </r>
       <r>    0.0388    0.0000 </r>
       <r>    0.1153    0.0000 </r>
       <r>    0.1767    0.0000 </r>
       <r>    0.2141    0.0000 </r>
       <r>    0.3371    0.0000 </r>
       <r>    0.4532    0.0000 </r>
       <r>    0.5117    0.0000 </r>
       <r>    0.5305    0.0000 </r>
       <r>    0.6387    0.0000 </r>
       <r>    0.6807    0.0000 </r>
       <r>    0.7498    0.0000 </r>
       <r>    0.8710    0.0000 </r>
       <r>    0.9330    0.0000 </r>
       <r>    1.0058    0.0000 </r>
       <r>    1.0663    0.0000 </r>
       <r>    1.1023    0.0000 </r>
       <r>    1.3102    0.0000 </r>
       <r>    1.3227    0.0000 </r>
       <r>    1.3647    0.0000 </r>
       <r>    1.4062    0.0000 </r>
       <r>    1.4686    0.0000 </r>
       <r>    1.5373    0.0000 </r>
       <r>    1.5696    0.0000 </r>
       <r>    1.6342    0.0000 </r>
       <r>    1.7269    0.0000 </r>
       <r>    1.8658    0.0000 </r>
       <r>    1.9391    0.0000 </r>
      </set>
      <set comment="kpoint 4">
       <r>  -23.8757    1.0000 </r>
       <r>  -23.8196    1.0000 </r>
       <r>  -23.7031    1.0000 </r>
       <r>  -23.4286    1.0000 </r>
       <r>  -23.1813    1.0000 </r>
       <r>  -21.4158    1.0000 </r>
       <r>  -11.8701    1.0000 </r>
       <r>  -11.8346    1.0000 </r>
       <r>  -11.8066    1.0000 </r>
       <r>  -11.1738    1.0000 </r>
       <r>  -10.9574    1.0000 </r>
       <r>   -9.1114    1.0000 </r>
       <r>   -8.7734    1.0000 </r>
       <r>   -8.6347    1.0000 </r>
       <r>   -8.4262    1.0000 </r>
       <r>   -7.9549    1.0000 </r>
       <r>   -7.5212    1.0000 </r>
       <r>   -7.0363    1.0000 </r>
       <r>   -6.8055    1.0000 </r>
       <r>   -6.6694    1.0000 </r>
       <r>   -6.6575    1.0000 </r>
       <r>   -6.5736    1.0000 </r>
       <r>   -6.3807    1.0000 </r>
       <r>   -6.2921    1.0000 </r>
       <r>   -6.1144    1.0000 </r>
       <r>   -6.0573    1.0000 </r>
       <r>   -5.9214    1.0000 </r>
       <r>   -5.8196    1.0000 </r>
       <r>   -5.7400    1.0000 </r>
       <r>   -5.5944    1.0000 </r>
       <r>   -5.4443    1.0000 </r>
       <r>   -5.1640    1.0000 </r>
       <r>   -5.0721    1.0000 </r>
       <r>   -4.7123    1.0000 </r>
       <r>   -4.5139    1.0000 </r>
       <r>   -4.5013    1.0000 </r>
[...]
       <r>   -21.9833     0.0000    10.0000 </r>
       <r>   -21.8834     0.0000    10.0000 </r>
       <r>   -21.7834     0.0000    10.0000 </r>
       <r>   -21.6835     0.0000    10.0000 </r>
       <r>   -21.5836     0.0000    10.0000 </r>
       <r>   -21.4836     0.0000    10.0000 </r>
       <r>   -21.3837     0.0000    12.0000 </r>
       <r>   -21.2838     0.0000    12.0000 </r>
       <r>   -21.1839     0.0000    12.0000 </r>
       <r>   -21.0839     0.0000    12.0000 </r>
       <r>   -20.9840     0.0000    12.0000 </r>
       <r>   -20.8841     0.0000    12.0000 </r>
       <r>   -20.7841     0.0000    12.0000 </r>
       <r>   -20.6842     0.0000    12.0000 </r>
       <r>   -20.5843     0.0000    12.0000 </r>
       <r>   -20.4844     0.0000    12.0000 </r>
       <r>   -20.3844     0.0000    12.0000 </r>
       <r>   -20.2845     0.0000    12.0000 </r>
       <r>   -20.1846     0.0000    12.0000 </r>
       <r>   -20.0846     0.0000    12.0000 </r>
       <r>   -19.9847     0.0000    12.0000 </r>
       <r>   -19.8848     0.0000    12.0000 </r>
       <r>   -19.7849     0.0000    12.0000 </r>
       <r>   -19.6849     0.0000    12.0000 </r>
       <r>   -19.5850     0.0000    12.0000 </r>
       <r>   -19.4851     0.0000    12.0000 </r>
       <r>   -19.3851     0.0000    12.0000 </r>
       <r>   -19.2852     0.0000    12.0000 </r>
       <r>   -19.1853     0.0000    12.0000 </r>
       <r>   -19.0854     0.0000    12.0000 </r>
       <r>   -18.9854     0.0000    12.0000 </r>
       <r>   -18.8855     0.0000    12.0000 </r>
       <r>   -18.7856     0.0000    12.0000 </r>
       <r>   -18.6856     0.0000    12.0000 </r>
       <r>   -18.5857     0.0000    12.0000 </r>
       <r>   -18.4858     0.0000    12.0000 </r>
       <r>   -18.3858     0.0000    12.0000 </r>
       <r>   -18.2859     0.0000    12.0000 </r>
       <r>   -18.1860     0.0000    12.0000 </r>
       <r>   -18.0861     0.0000    12.0000 </r>
       <r>   -17.9861     0.0000    12.0000 </r>
       <r>   -17.8862     0.0000    12.0000 </r>
       <r>   -17.7863     0.0000    12.0000 </r>
       <r>   -17.6863     0.0000    12.0000 </r>
       <r>   -17.5864     0.0000    12.0000 </r>
       <r>   -17.4865     0.0000    12.0000 </r>
       <r>   -17.3866     0.0000    12.0000 </r>
       <r>   -17.2866     0.0000    12.0000 </r>
       <r>   -17.1867     0.0000    12.0000 </r>
       <r>   -17.0868     0.0000    12.0000 </r>
       <r>   -16.9868     0.0000    12.0000 </r>
       <r>   -16.8869     0.0000    12.0000 </r>
       <r>   -16.7870     0.0000    12.0000 </r>
       <r>   -16.6871     0.0000    12.0000 </r>
       <r>   -16.5871     0.0000    12.0000 </r>
       <r>   -16.4872     0.0000    12.0000 </r>
       <r>   -16.3873     0.0000    12.0000 </r>
       <r>   -16.2873     0.0000    12.0000 </r>
       <r>   -16.1874     0.0000    12.0000 </r>
       <r>   -16.0875     0.0000    12.0000 </r>
       <r>   -15.9876     0.0000    12.0000 </r>
       <r>   -15.8876     0.0000    12.0000 </r>
       <r>   -15.7877     0.0000    12.0000 </r>
       <r>   -15.6878     0.0000    12.0000 </r>
       <r>   -15.5878     0.0000    12.0000 </r>
       <r>   -15.4879     0.0000    12.0000 </r>
       <r>   -15.3880     0.0000    12.0000 </r>
       <r>   -15.2881     0.0000    12.0000 </r>
       <r>   -15.1881     0.0000    12.0000 </r>
       <r>   -15.0882     0.0000    12.0000 </r>
       <r>   -14.9883     0.0000    12.0000 </r>
       <r>   -14.8883     0.0000    12.0000 </r>
       <r>   -14.7884     0.0000    12.0000 </r>
       <r>   -14.6885     0.0000    12.0000 </r>
       <r>   -14.5886     0.0000    12.0000 </r>
       <r>   -14.4886     0.0000    12.0000 </r>
       <r>   -14.3887     0.0000    12.0000 </r>
       <r>   -14.2888     0.0000    12.0000 </r>
       <r>   -14.1888     0.0000    12.0000 </r>
       <r>   -14.0889     0.0000    12.0000 </r>
       <r>   -13.9890     0.0000    12.0000 </r>
       <r>   -13.8891     0.0000    12.0000 </r>
       <r>   -13.7891     0.0000    12.0000 </r>
       <r>   -13.6892     0.0000    12.0000 </r>
       <r>   -13.5893     0.0000    12.0000 </r>
       <r>   -13.4893     0.0000    12.0000 </r>
       <r>   -13.3894     0.0000    12.0000 </r>
       <r>   -13.2895     0.0000    12.0000 </r>
       <r>   -13.1896     0.0000    12.0000 </r>
       <r>   -13.0896     0.0000    12.0000 </r>
       <r>   -12.9897     0.0000    12.0000 </r>
       <r>   -12.8898     0.0000    12.0000 </r>
       <r>   -12.7898     0.0000    12.0000 </r>
       <r>   -12.6899     0.0000    12.0000 </r>
       <r>   -12.5900     0.0000    12.0000 </r>
       <r>   -12.4900     0.0000    12.0000 </r>
       <r>   -12.3901     0.0000    12.0000 </r>
       <r>   -12.2902     0.0000    12.0000 </r>
       <r>   -12.1903     0.0000    12.0000 </r>
       <r>   -12.0903     0.0000    12.0000 </r>
       <r>   -11.9904     0.0000    12.0000 </r>
       <r>   -11.8905     0.0000    12.0000 </r>
       <r>   -11.7905     0.0000    18.0000 </r>
       <r>   -11.6906     0.0000    18.0000 </r>
       <r>   -11.5907     0.0000    18.0000 </r>
       <r>   -11.4908     0.0000    18.0000 </r>
       <r>   -11.3908     0.0000    18.0000 </r>
       <r>   -11.2909     0.0000    18.0000 </r>
       <r>   -11.1910     0.0000    18.0000 </r>
       <r>   -11.0910     0.0000    20.0000 </r>
       <r>   -10.9911     0.0000    20.0000 </r>
       <r>   -10.8912     0.0000    22.0000 </r>
       <r>   -10.7913     0.0000    22.0000 </r>
       <r>   -10.6913     0.0000    22.0000 </r>
       <r>   -10.5914     0.0000    22.0000 </r>
       <r>   -10.4915     0.0000    22.0000 </r>
       <r>   -10.3915     0.0000    22.0000 </r>
       <r>   -10.2916     0.0000    22.0000 </r>
       <r>   -10.1917     0.0000    22.0000 </r>
       <r>   -10.0918     0.0000    22.0000 </r>
       <r>    -9.9918     0.0000    22.0000 </r>
       <r>    -9.8919     0.0000    22.0000 </r>
       <r>    -9.7920     0.0000    22.0000 </r>
       <r>    -9.6920     0.0000    22.0000 </r>
       <r>    -9.5921     0.0000    22.0000 </r>
       <r>    -9.4922     0.0000    22.0000 </r>
       <r>    -9.3923     0.0000    22.0000 </r>
       <r>    -9.2923     0.0000    22.0000 </r>
       <r>    -9.1924     0.0000    22.0000 </r>
       <r>    -9.0925     0.0000    24.0000 </r>
       <r>    -8.9925     0.0000    24.0000 </r>
       <r>    -8.8926     0.0000    24.0000 </r>
       <r>    -8.7927     0.0000    24.0000 </r>
       <r>    -8.6928     0.0000    26.0000 </r>
       <r>    -8.5928     0.0000    28.0000 </r>
       <r>    -8.4929     0.0000    28.0000 </r>
       <r>    -8.3930     0.0000    30.0000 </r>
       <r>    -8.2930     0.0000    30.0000 </r>
       <r>    -8.1931     0.0000    30.0000 </r>
       <r>    -8.0932     0.0000    30.0000 </r>
       <r>    -7.9933     0.0000    30.0000 </r>
       <r>    -7.8933     0.0000    32.0000 </r>
       <r>    -7.7934     0.0000    32.0000 </r>
       <r>    -7.6935     0.0000    32.0000 </r>
       <r>    -7.5935     0.0000    32.0000 </r>
       <r>    -7.4936     0.0000    34.0000 </r>
       <r>    -7.3937     0.6266    34.0070 </r>
       <r>    -7.2938     3.4146    34.2090 </r>
       <r>    -7.1938    16.1850    34.7249 </r>
       <r>    -7.0939     5.9207    35.8294 </r>
       <r>    -6.9940    15.8419    36.1635 </r>
       <r>    -6.8940     8.5756    37.6204 </r>
       <r>    -6.7941    15.8390    38.5156 </r>
       <r>    -6.6942     5.3975    39.9331 </r>
       <r>    -6.5943     7.2899    40.2307 </r>
       <r>    -6.4943     9.6500    42.3826 </r>
       <r>    -6.3944     8.8875    43.6674 </r>
       <r>    -6.2945    18.3831    45.7650 </r>
       <r>    -6.1945     4.0103    47.4273 </r>
       <r>    -6.0946     3.9784    47.7715 </r>
       <r>    -5.9947    13.5156    48.5705 </r>
       <r>    -5.8947    23.0659    50.4816 </r>
       <r>    -5.7948    26.0662    52.7446 </r>
       <r>    -5.6949    40.3199    56.4899 </r>
       <r>    -5.5950    39.4232    57.8768 </r>
       <r>    -5.4950    31.6279    59.8920 </r>
       <r>    -5.3951     5.6072    61.5484 </r>
       <r>    -5.2952    17.6937    62.2619 </r>
       <r>    -5.1952     5.1951    63.9221 </r>
       <r>    -5.0953    28.1525    65.0245 </r>
       <r>    -4.9954     8.5533    66.7084 </r>
       <r>    -4.8955     6.0253    67.4484 </r>
       <r>    -4.7955     2.7371    67.8862 </r>
       <r>    -4.6956     8.8981    69.2040 </r>
       <r>    -4.5957     6.5609    69.9587 </r>
       <r>    -4.4957     7.3631    70.5558 </r>
       <r>    -4.3958    30.2511    72.6958 </r>
       <r>    -4.2959    20.1451    74.7451 </r>
       <r>    -4.1960    16.1520    76.1332 </r>
       <r>    -4.0960    17.0064    77.9325 </r>
       <r>    -3.9961    16.8166    79.1089 </r>
       <r>    -3.8962     4.0161    80.3751 </r>
       <r>    -3.7962    15.8075    81.2345 </r>
       <r>    -3.6963    20.1202    83.2614 </r>
       <r>    -3.5964     7.8506    84.7545 </r>
       <r>    -3.4965    13.4756    86.4274 </r>
       <r>    -3.3965     7.3855    87.2973 </r>
       <r>    -3.2966     6.7979    87.9955 </r>
       <r>    -3.1967     6.9034    88.6801 </r>
       <r>    -3.0967     7.0089    89.3752 </r>
       <r>    -2.9968    18.3200    91.6678 </r>
       <r>    -2.8969    14.8080    93.6018 </r>
       <r>    -2.7970    27.7982    96.2146 </r>
       <r>    -2.6970    30.9453    99.0267 </r>
       <r>    -2.5971    12.3429   101.0450 </r>
       <r>    -2.4972    19.1351   102.5303 </r>
       <r>    -2.3972     0.0000   104.0000 </r>
       <r>    -2.2973    14.1590   106.5430 </r>
       <r>    -2.1974    23.9999   107.7853 </r>
       <r>    -2.0975     4.3576   109.2863 </r>
       <r>    -1.9975     2.7825   109.6431 </r>
       <r>    -1.8976     6.9724   111.4292 </r>
       <r>    -1.7977    20.5330   112.7543 </r>
       <r>    -1.6977    30.4585   115.4827 </r>
       <r>    -1.5978    30.8708   118.4698 </r>
       <r>    -1.4979    26.4691   121.4075 </r>
       <r>    -1.3980    19.4047   123.7203 </r>
       <r>    -1.2980    16.3685   125.4721 </r>
       <r>    -1.1981    14.2435   127.0800 </r>
       <r>    -1.0982    11.7913   128.3771 </r>
       <r>    -0.9982    21.6492   129.7473 </r>
       <r>    -0.8983    19.2639   132.1401 </r>
       <r>    -0.7984    22.2968   134.9155 </r>
       <r>    -0.6985     9.5454   136.7855 </r>
       <r>    -0.5985    27.2600   139.2205 </r>
       <r>    -0.4986    31.5804   142.1546 </r>
       <r>    -0.3987    23.0528   143.8732 </r>
       <r>    -0.2987    12.6091   145.3648 </r>
       <r>    -0.1988     8.6151   146.9853 </r>
       <r>    -0.0989    19.3026   148.2835 </r>
       <r>     0.0011    42.6339   149.7690 </r>
       <r>     0.1010    29.5772   152.1949 </r>
       <r>     0.2009    13.3601   155.7912 </r>
       <r>     0.3008    44.5963   158.9106 </r>
       <r>     0.4008     7.9286   160.1326 </r>
       <r>     0.5007    14.0080   162.0680 </r>
       <r>     0.6006    20.5922   165.4085 </r>
       <r>     0.7006    29.1856   167.8359 </r>
       <r>     0.8005    26.8052   169.9701 </r>
       <r>     0.9004    34.0190   172.1322 </r>
       <r>     1.0003    14.6700   175.0727 </r>
       <r>     1.1003    14.9622   177.7804 </r>
       <r>     1.2002    14.4869   180.0604 </r>
       <r>     1.3001    37.5066   182.4799 </r>
       <r>     1.4001    50.7088   186.1781 </r>
       <r>     1.5000    32.2862   189.8165 </r>
       <r>     1.5999    32.5638   194.4565 </r>
       <r>     1.6998    43.2052   198.1288 </r>
       <r>     1.7998    15.1517   201.1153 </r>
       <r>     1.8997     3.6716   202.2760 </r>
       <r>     1.9996    11.7993   202.9870 </r>
       <r>     2.0996     0.0000   204.0000 </r>
       <r>     2.1995     0.0000   204.0000 </r>
       <r>     2.2994     0.0000   204.0000 </r>
       <r>     2.3993     0.0000   204.0000 </r>
       <r>     2.4993     0.0000   204.0000 </r>
       <r>     2.5992     0.0000   204.0000 </r>
       <r>     2.6991     0.0000   204.0000 </r>
       <r>     2.7991     0.0000   204.0000 </r>
       <r>     2.8990     0.0000   204.0000 </r>
       <r>     2.9989     0.0000   204.0000 </r>
       <r>     3.0988     0.0000   204.0000 </r>
       <r>     3.1988     0.0000   204.0000 </r>
       <r>     3.2987     0.0000   204.0000 </r>
       <r>     3.3986     0.0000   204.0000 </r>
       <r>     3.4986     0.0000   204.0000 </r>
       <r>     3.5985     0.0000   204.0000 </r>
       <r>     3.6984     0.0000   204.0000 </r>
       <r>     3.7983     0.0000   204.0000 </r>
       <r>     3.8983     0.0000   204.0000 </r>
       <r>     3.9982     0.0000   204.0000 </r>
       <r>     4.0981     0.0000   204.0000 </r>
      </set>
     </set>
    </array>
   </total>
  </dos>
 </calculation>
 <structure name="finalpos" >
  <crystal>
   <varray name="basis" >
    <v>       9.55575275       0.00000000       0.00000000 </v>
    <v>      -4.77787638       8.27552464       0.00000000 </v>
    <v>       0.00000000       0.00000000      32.62509537 </v>
   </varray>
   <i name="volume">   2579.95558872 </i>
   <varray name="rec_basis" >
    <v>       0.10464900       0.06041913       0.00000000 </v>
    <v>       0.00000000       0.12083826       0.00000000 </v>
    <v>       0.00000000       0.00000000       0.03065125 </v>
   </varray>
  </crystal>
  <varray name="positions" >
   <v>       0.00000000       0.00000000       0.00000000 </v>
   <v>       0.99916625       0.00166925       0.15818015 </v>
   <v>       0.00142889       0.00912822       0.33036434 </v>
   <v>       0.00000001       0.33333336       0.00000000 </v>
   <v>       0.00027871       0.33533101       0.15755356 </v>
   <v>       0.99005441       0.34326623       0.31241524 </v>
   <v>       0.00000002       0.66666672       0.00000000 </v>
   <v>       0.00026601       0.66925150       0.15783558 </v>
   <v>       0.01790492       0.68699766       0.31180978 </v>
   <v>       0.33333334       0.00000000       0.00000000 </v>
   <v>       0.33437440       0.00176957       0.15719502 </v>
   <v>       0.33660635       0.01698398       0.30926939 </v>
   <v>       0.33333335       0.33333336       0.00000000 </v>
   <v>       0.33158660       0.33305345       0.15710588 </v>
   <v>       0.31776000       0.33248991       0.31209131 </v>
   <v>       0.33333336       0.66666672       0.00000000 </v>
   <v>       0.33336394       0.66990631       0.15784323 </v>
   <v>       0.32633228       0.68428937       0.33015115 </v>
   <v>       0.66666668       0.00000000       0.00000000 </v>
   <v>       0.66602062       0.00006480       0.15782082 </v>
   <v>       0.67187131       0.01439942       0.31412741 </v>
   <v>       0.66666668       0.33333336       0.00000000 </v>
   <v>       0.66709864       0.33660783       0.15862254 </v>
   <v>       0.66485862       0.34383603       0.33367962 </v>
   <v>       0.66666670       0.66666672       0.00000000 </v>
   <v>       0.66975738       0.66914132       0.15788461 </v>
   <v>       0.66018559       0.67796550       0.31910494 </v>
   <v>       0.11111113       0.22222222       0.07982145 </v>
   <v>       0.10547771       0.22241713       0.23654183 </v>
   <v>       0.11111114       0.55555561       0.07982145 </v>
   <v>       0.11722496       0.56021111       0.23616050 </v>
   <v>       0.11111116       0.88888894       0.07982145 </v>
   <v>       0.11161990       0.89634460       0.23466749 </v>
   <v>       0.44444450       0.22222222       0.07982145 </v>
   <v>       0.44960527       0.23424895       0.23608770 </v>
   <v>       0.44444450       0.55555561       0.07982145 </v>
   <v>       0.44781845       0.55955779       0.23377143 </v>
   <v>       0.44444451       0.88888894       0.07982145 </v>
   <v>       0.44356651       0.88706256       0.23730058 </v>
   <v>       0.77777779       0.22222222       0.07982145 </v>
   <v>       0.77401219       0.22479797       0.23543733 </v>
   <v>       0.77777781       0.55555561       0.07982145 </v>
   <v>       0.77741897       0.55692080       0.23915734 </v>
   <v>       0.77777784       0.88888894       0.07982145 </v>
   <v>       0.77948389       0.88934842       0.23926703 </v>
   <v>       0.00203203       0.00137415       0.39622778 </v>
   <v>       0.29417343       0.96530279       0.41262016 </v>
   <v>       0.88340632       0.22096222       0.41600991 </v>
   <v>       0.60376974       0.26961493       0.40052225 </v>
   <v>       0.69240033       0.55111978       0.36393538 </v>
   <v>       0.35356552       0.70874957       0.39531445 </v>
   <v>       0.96929530       0.07155865       0.41059734 </v>
   <v>       0.09515656       0.00632632       0.41052369 </v>
   <v>       0.39471219       0.07122600       0.41065342 </v>
   <v>       0.25640763       0.94047348       0.38364849 </v>
   <v>       0.98141515       0.32714115       0.41818794 </v>
   <v>       0.86442766       0.20769401       0.38562843 </v>
   <v>       0.62157082       0.38101462       0.40293278 </v>
   <v>       0.69482670       0.26690270       0.41403793 </v>
   <v>       0.79041779       0.62463840       0.37920068 </v>
   <v>       0.42790883       0.55488759       0.33052485 </v>
   <v>       0.34534603       0.80069619       0.40701587 </v>
   <v>       0.45312549       0.71677385       0.40580413 </v>
  </varray>
  <varray name="selective"  type="logical" >
   <v type="logical" >  F  F  F </v>
   <v type="logical" >  T  T  T </v>
   <v type="logical" >  T  T  T </v>
   <v type="logical" >  F  F  F </v>
   <v type="logical" >  T  T  T </v>
   <v type="logical" >  T  T  T </v>
   <v type="logical" >  F  F  F </v>
   <v type="logical" >  T  T  T </v>
   <v type="logical" >  T  T  T </v>
   <v type="logical" >  F  F  F </v>
   <v type="logical" >  T  T  T </v>
   <v type="logical" >  T  T  T </v>
   <v type="logical" >  F  F  F </v>
   <v type="logical" >  T  T  T </v>
   <v type="logical" >  T  T  T </v>
   <v type="logical" >  F  F  F </v>
   <v type="logical" >  T  T  T </v>
   <v type="logical" >  T  T  T </v>
   <v type="logical" >  F  F  F </v>
   <v type="logical" >  T  T  T </v>
   <v type="logical" >  T  T  T </v>
   <v type="logical" >  F  F  F </v>
   <v type="logical" >  T  T  T </v>
   <v type="logical" >  T  T  T </v>
   <v type="logical" >  F  F  F </v>
   <v type="logical" >  T  T  T </v>
   <v type="logical" >  T  T  T </v>
   <v type="logical" >  F  F  F </v>
   <v type="logical" >  T  T  T </v>
   <v type="logical" >  F  F  F </v>
   <v type="logical" >  T  T  T </v>
   <v type="logical" >  F  F  F </v>
   <v type="logical" >  T  T  T </v>
   <v type="logical" >  F  F  F </v>
   <v type="logical" >  T  T  T </v>
   <v type="logical" >  F  F  F </v>
   <v type="logical" >  T  T  T </v>
   <v type="logical" >  F  F  F </v>
   <v type="logical" >  T  T  T </v>
   <v type="logical" >  F  F  F </v>
   <v type="logical" >  T  T  T </v>
   <v type="logical" >  F  F  F </v>
   <v type="logical" >  T  T  T </v>
   <v type="logical" >  F  F  F </v>
   <v type="logical" >  T  T  T </v>
   <v type="logical" >  T  T  T </v>
   <v type="logical" >  T  T  T </v>
   <v type="logical" >  T  T  T </v>
   <v type="logical" >  T  T  T </v>
   <v type="logical" >  T  T  T </v>
   <v type="logical" >  T  T  T </v>
   <v type="logical" >  T  T  T </v>
   <v type="logical" >  T  T  T </v>
   <v type="logical" >  T  T  T </v>
   <v type="logical" >  T  T  T </v>
   <v type="logical" >  T  T  T </v>
   <v type="logical" >  T  T  T </v>
   <v type="logical" >  T  T  T </v>
   <v type="logical" >  T  T  T </v>
   <v type="logical" >  T  T  T </v>
   <v type="logical" >  T  T  T </v>
   <v type="logical" >  T  T  T </v>
   <v type="logical" >  T  T  T </v>
  </varray>
  <nose>
   <v>      -3.00000000       0.00000000       0.00010000       0.00010000 </v>
  </nose>
 </structure>
</modeling>
