Mg_slab_in_a_box                        
           1
     9.555753    0.000000    0.000000
    -4.777876    8.275525    0.000000
     0.000000    0.000000   32.625095
   Mg   O    H 
  45   6  12
Direct configuration=     1
   0.00000000  0.00000000  0.00000000
   0.99916625  0.00166925  0.15818015
   0.00142889  0.00912822  0.33036434
   0.00000001  0.33333336  0.00000000
   0.00027871  0.33533101  0.15755356
   0.99005441  0.34326623  0.31241524
   0.00000002  0.66666672  0.00000000
   0.00026601  0.66925150  0.15783558
   0.01790492  0.68699766  0.31180978
   0.33333334  0.00000000  0.00000000
   0.33437440  0.00176957  0.15719502
   0.33660635  0.01698398  0.30926939
   0.33333335  0.33333336  0.00000000
   0.33158660  0.33305345  0.15710588
   0.31776000  0.33248991  0.31209131
   0.33333336  0.66666672  0.00000000
   0.33336394  0.66990631  0.15784323
   0.32633228  0.68428937  0.33015115
   0.66666668  0.00000000  0.00000000
   0.66602062  0.00006480  0.15782082
   0.67187131  0.01439942  0.31412741
   0.66666668  0.33333336  0.00000000
   0.66709864  0.33660783  0.15862254
   0.66485862  0.34383603  0.33367962
   0.66666670  0.66666672  0.00000000
   0.66975738  0.66914132  0.15788461
   0.66018559  0.67796550  0.31910494
   0.11111113  0.22222222  0.07982145
   0.10547771  0.22241713  0.23654183
   0.11111114  0.55555561  0.07982145
   0.11722496  0.56021111  0.23616050
   0.11111116  0.88888894  0.07982145
   0.11161990  0.89634460  0.23466749
   0.44444450  0.22222222  0.07982145
   0.44960527  0.23424895  0.23608770
   0.44444450  0.55555561  0.07982145
   0.44781845  0.55955779  0.23377143
   0.44444451  0.88888894  0.07982145
   0.44356651  0.88706256  0.23730058
   0.77777779  0.22222222  0.07982145
   0.77401219  0.22479797  0.23543733
   0.77777781  0.55555561  0.07982145
   0.77741897  0.55692080  0.23915734
   0.77777784  0.88888894  0.07982145
   0.77948389  0.88934842  0.23926703
   0.00203203  0.00137415  0.39622778
   0.29417343  0.96530279  0.41262016
   0.88340632  0.22096222  0.41600991
   0.60376974  0.26961493  0.40052225
   0.69240033  0.55111978  0.36393538
   0.35356552  0.70874957  0.39531445
   0.96929530  0.07155865  0.41059734
   0.09515656  0.00632632  0.41052369
   0.39471219  0.07122600  0.41065342
   0.25640763  0.94047348  0.38364849
   0.98141515  0.32714115  0.41818794
   0.86442766  0.20769401  0.38562843
   0.62157082  0.38101462  0.40293278
   0.69482670  0.26690270  0.41403793
   0.79041779  0.62463840  0.37920068
   0.42790883  0.55488759  0.33052485
   0.34534603  0.80069619  0.40701587
   0.45312549  0.71677385  0.40580413
