  63  63   0   0
  0.4095168E+02  0.9555753E-09  0.9555753E-09  0.3262510E-08  0.5000000E-15
  1.000000000000000E-004
  CAR 
 Mg_slab_in_a_box                        
      4.02835414    -25.51328832  301     -0.79051297      1.00000000
    -25.513  0.0000E+00  0.0000E+00
    -25.415  0.0000E+00  0.0000E+00
    -25.316  0.0000E+00  0.0000E+00
    -25.218  0.0000E+00  0.0000E+00
    -25.119  0.0000E+00  0.0000E+00
    -25.021  0.0000E+00  0.0000E+00
    -24.922  0.0000E+00  0.0000E+00
    -24.824  0.0000E+00  0.0000E+00
    -24.726  0.0000E+00  0.0000E+00
    -24.627  0.0000E+00  0.0000E+00
    -24.529  0.0000E+00  0.0000E+00
    -24.430  0.0000E+00  0.0000E+00
    -24.332  0.0000E+00  0.0000E+00
    -24.233  0.0000E+00  0.0000E+00
    -24.135  0.0000E+00  0.0000E+00
    -24.036  0.0000E+00  0.0000E+00
    -23.938  0.0000E+00  0.0000E+00
    -23.839  0.0000E+00  0.0000E+00
    -23.741  0.0000E+00  0.0000E+00
    -23.642  0.0000E+00  0.0000E+00
    -23.544  0.0000E+00  0.0000E+00
    -23.445  0.0000E+00  0.2000E+01
    -23.347  0.9066E+02  0.2916E+01
    -23.248  0.1662E+03  0.7121E+01
    -23.150  0.0000E+00  0.8000E+01
    -23.051  0.0000E+00  0.8000E+01
    -22.953  0.0000E+00  0.1000E+02
    -22.855  0.0000E+00  0.1000E+02
    -22.756  0.0000E+00  0.1000E+02
    -22.658  0.0000E+00  0.1000E+02
    -22.559  0.0000E+00  0.1000E+02
    -22.461  0.0000E+00  0.1000E+02
    -22.362  0.0000E+00  0.1000E+02
    -22.264  0.0000E+00  0.1000E+02
    -22.165  0.0000E+00  0.1000E+02
    -22.067  0.0000E+00  0.1000E+02
    -21.968  0.0000E+00  0.1000E+02
    -21.870  0.0000E+00  0.1000E+02
    -21.771  0.0000E+00  0.1000E+02
    -21.673  0.0000E+00  0.1000E+02
    -21.574  0.0000E+00  0.1000E+02
    -21.476  0.0000E+00  0.1000E+02
    -21.377  0.0000E+00  0.1000E+02
    -21.279  0.0000E+00  0.1200E+02
    -21.181  0.0000E+00  0.1200E+02
    -21.082  0.0000E+00  0.1200E+02
    -20.984  0.0000E+00  0.1200E+02
    -20.885  0.0000E+00  0.1200E+02
    -20.787  0.0000E+00  0.1200E+02
    -20.688  0.0000E+00  0.1200E+02
    -20.590  0.0000E+00  0.1200E+02
    -20.491  0.0000E+00  0.1200E+02
    -20.393  0.0000E+00  0.1200E+02
    -20.294  0.0000E+00  0.1200E+02
    -20.196  0.0000E+00  0.1200E+02
    -20.097  0.0000E+00  0.1200E+02
    -19.999  0.0000E+00  0.1200E+02
    -19.900  0.0000E+00  0.1200E+02
    -19.802  0.0000E+00  0.1200E+02
    -19.703  0.0000E+00  0.1200E+02
    -19.605  0.0000E+00  0.1200E+02
    -19.506  0.0000E+00  0.1200E+02
    -19.408  0.0000E+00  0.1200E+02
    -19.310  0.0000E+00  0.1200E+02
    -19.211  0.0000E+00  0.1200E+02
    -19.113  0.0000E+00  0.1200E+02
    -19.014  0.0000E+00  0.1200E+02
    -18.916  0.0000E+00  0.1200E+02
    -18.817  0.0000E+00  0.1200E+02
    -18.719  0.0000E+00  0.1200E+02
    -18.620  0.0000E+00  0.1200E+02
    -18.522  0.0000E+00  0.1200E+02
    -18.423  0.0000E+00  0.1200E+02
    -18.325  0.0000E+00  0.1200E+02
    -18.226  0.0000E+00  0.1200E+02
    -18.128  0.0000E+00  0.1200E+02
    -18.029  0.0000E+00  0.1200E+02
    -17.931  0.0000E+00  0.1200E+02
    -17.832  0.0000E+00  0.1200E+02
    -17.734  0.0000E+00  0.1200E+02
    -17.636  0.0000E+00  0.1200E+02
    -17.537  0.0000E+00  0.1200E+02
    -17.439  0.0000E+00  0.1200E+02
    -17.340  0.0000E+00  0.1200E+02
    -17.242  0.0000E+00  0.1200E+02
    -17.143  0.0000E+00  0.1200E+02
    -17.045  0.0000E+00  0.1200E+02
    -16.946  0.0000E+00  0.1200E+02
    -16.848  0.0000E+00  0.1200E+02
    -16.749  0.0000E+00  0.1200E+02
    -16.651  0.0000E+00  0.1200E+02
    -16.552  0.0000E+00  0.1200E+02
    -16.454  0.0000E+00  0.1200E+02
    -16.355  0.0000E+00  0.1200E+02
    -16.257  0.0000E+00  0.1200E+02
    -16.158  0.0000E+00  0.1200E+02
    -16.060  0.0000E+00  0.1200E+02
    -15.961  0.0000E+00  0.1200E+02
    -15.863  0.0000E+00  0.1200E+02
    -15.765  0.0000E+00  0.1200E+02
    -15.666  0.0000E+00  0.1200E+02
    -15.568  0.0000E+00  0.1200E+02
    -15.469  0.0000E+00  0.1200E+02
    -15.371  0.0000E+00  0.1200E+02
    -15.272  0.0000E+00  0.1200E+02
    -15.174  0.0000E+00  0.1200E+02
    -15.075  0.0000E+00  0.1200E+02
    -14.977  0.0000E+00  0.1200E+02
    -14.878  0.0000E+00  0.1200E+02
    -14.780  0.0000E+00  0.1200E+02
    -14.681  0.0000E+00  0.1200E+02
    -14.583  0.0000E+00  0.1200E+02
    -14.484  0.0000E+00  0.1200E+02
    -14.386  0.0000E+00  0.1200E+02
    -14.287  0.0000E+00  0.1200E+02
    -14.189  0.0000E+00  0.1200E+02
    -14.091  0.0000E+00  0.1200E+02
    -13.992  0.0000E+00  0.1200E+02
    -13.894  0.0000E+00  0.1200E+02
    -13.795  0.0000E+00  0.1200E+02
    -13.697  0.0000E+00  0.1200E+02
    -13.598  0.0000E+00  0.1200E+02
    -13.500  0.0000E+00  0.1200E+02
    -13.401  0.0000E+00  0.1200E+02
    -13.303  0.0000E+00  0.1200E+02
    -13.204  0.0000E+00  0.1200E+02
    -13.106  0.0000E+00  0.1200E+02
    -13.007  0.0000E+00  0.1200E+02
    -12.909  0.0000E+00  0.1200E+02
    -12.810  0.0000E+00  0.1200E+02
    -12.712  0.0000E+00  0.1200E+02
    -12.613  0.0000E+00  0.1200E+02
    -12.515  0.0000E+00  0.1200E+02
    -12.416  0.0000E+00  0.1200E+02
    -12.318  0.0000E+00  0.1200E+02
    -12.220  0.0000E+00  0.1200E+02
    -12.121  0.0000E+00  0.1200E+02
    -12.023  0.0000E+00  0.1200E+02
    -11.924  0.0000E+00  0.1200E+02
    -11.826  0.0000E+00  0.1200E+02
    -11.727  0.0000E+00  0.1200E+02
    -11.629  0.0000E+00  0.1200E+02
    -11.530  0.0000E+00  0.1200E+02
    -11.432  0.0000E+00  0.1600E+02
    -11.333  0.0000E+00  0.1800E+02
    -11.235  0.0000E+00  0.1800E+02
    -11.136  0.0000E+00  0.1800E+02
    -11.038  0.0000E+00  0.2000E+02
    -10.939  0.0000E+00  0.2000E+02
    -10.841  0.0000E+00  0.2200E+02
    -10.742  0.0000E+00  0.2200E+02
    -10.644  0.0000E+00  0.2200E+02
    -10.546  0.0000E+00  0.2200E+02
    -10.447  0.0000E+00  0.2200E+02
    -10.349  0.0000E+00  0.2200E+02
    -10.250  0.0000E+00  0.2200E+02
    -10.152  0.0000E+00  0.2200E+02
    -10.053  0.0000E+00  0.2200E+02
     -9.955  0.0000E+00  0.2200E+02
     -9.856  0.0000E+00  0.2200E+02
     -9.758  0.0000E+00  0.2200E+02
     -9.659  0.0000E+00  0.2200E+02
     -9.561  0.0000E+00  0.2200E+02
     -9.462  0.0000E+00  0.2200E+02
     -9.364  0.0000E+00  0.2200E+02
     -9.265  0.0000E+00  0.2200E+02
     -9.167  0.0000E+00  0.2200E+02
     -9.068  0.0000E+00  0.2200E+02
     -8.970  0.0000E+00  0.2200E+02
     -8.871  0.0000E+00  0.2200E+02
     -8.773  0.0000E+00  0.2200E+02
     -8.675  0.0000E+00  0.2400E+02
     -8.576  0.0000E+00  0.2400E+02
     -8.478  0.3254E+02  0.2775E+02
     -8.379  0.0000E+00  0.2800E+02
     -8.281  0.0000E+00  0.3000E+02
     -8.182  0.0000E+00  0.3000E+02
     -8.084  0.0000E+00  0.3000E+02
     -7.985  0.0000E+00  0.3000E+02
     -7.887  0.0000E+00  0.3000E+02
     -7.788  0.0000E+00  0.3000E+02
     -7.690  0.2004E+03  0.3104E+02
     -7.591  0.0000E+00  0.3200E+02
     -7.493  0.6656E+00  0.3400E+02
     -7.394  0.5342E+01  0.3430E+02
     -7.296  0.8066E+01  0.3505E+02
     -7.197  0.4698E+01  0.3568E+02
     -7.099  0.2155E+01  0.3598E+02
     -7.001  0.8163E+01  0.3645E+02
     -6.902  0.8948E+01  0.3770E+02
     -6.804  0.1407E+01  0.3801E+02
     -6.705  0.9675E+01  0.3856E+02
     -6.607  0.1344E+02  0.3997E+02
     -6.508  0.1022E+02  0.4082E+02
     -6.410  0.1931E+02  0.4202E+02
     -6.311  0.1960E+02  0.4432E+02
     -6.213  0.5106E+01  0.4565E+02
     -6.114  0.2800E+02  0.4701E+02
     -6.016  0.1465E+02  0.4838E+02
     -5.917  0.1480E+02  0.5008E+02
     -5.819  0.9915E+01  0.5268E+02
     -5.720  0.5620E+01  0.5344E+02
     -5.622  0.6947E+01  0.5535E+02
     -5.523  0.3290E+02  0.5773E+02
     -5.425  0.2514E+02  0.6027E+02
     -5.326  0.0000E+00  0.6200E+02
     -5.228  0.1180E+02  0.6416E+02
     -5.130  0.1149E+02  0.6516E+02
     -5.031  0.3755E+01  0.6591E+02
     -4.933  0.1233E+02  0.6766E+02
     -4.834  0.1134E+02  0.6911E+02
     -4.736  0.7784E+01  0.7004E+02
     -4.637  0.1469E+02  0.7081E+02
     -4.539  0.1394E+02  0.7313E+02
     -4.440  0.1783E+02  0.7512E+02
     -4.342  0.1853E+02  0.7653E+02
     -4.243  0.1200E+02  0.7819E+02
     -4.145  0.3574E+02  0.7926E+02
     -4.046  0.4712E+01  0.8039E+02
     -3.948  0.2165E+02  0.8160E+02
     -3.849  0.2314E+02  0.8395E+02
     -3.751  0.8009E+01  0.8480E+02
     -3.652  0.1092E+02  0.8645E+02
     -3.554  0.8609E+01  0.8720E+02
     -3.456  0.7208E+01  0.8798E+02
     -3.357  0.6562E+01  0.8863E+02
     -3.259  0.6893E+01  0.8930E+02
     -3.160  0.1628E+02  0.9155E+02
     -3.062  0.1578E+02  0.9341E+02
     -2.963  0.3398E+02  0.9612E+02
     -2.865  0.2492E+02  0.9929E+02
     -2.766  0.1161E+02  0.1010E+03
     -2.668  0.2311E+02  0.1021E+03
     -2.569  0.9028E+01  0.1042E+03
     -2.471  0.1240E+02  0.1064E+03
     -2.372  0.2232E+02  0.1075E+03
     -2.274  0.4037E+01  0.1092E+03
     -2.175  0.3055E+01  0.1095E+03
     -2.077  0.6364E+01  0.1112E+03
     -1.978  0.1715E+02  0.1123E+03
     -1.880  0.3391E+02  0.1148E+03
     -1.782  0.3064E+02  0.1178E+03
     -1.683  0.2917E+02  0.1208E+03
     -1.585  0.2368E+02  0.1233E+03
     -1.486  0.2348E+02  0.1255E+03
     -1.388  0.1244E+02  0.1271E+03
     -1.289  0.9940E+01  0.1282E+03
     -1.191  0.1116E+02  0.1292E+03
     -1.092  0.3237E+02  0.1313E+03
     -0.994  0.1851E+02  0.1338E+03
     -0.895  0.4633E+02  0.1362E+03
     -0.797  0.3544E+02  0.1377E+03
     -0.698  0.3109E+02  0.1414E+03
     -0.600  0.2061E+02  0.1438E+03
     -0.501  0.8015E+01  0.1446E+03
     -0.403  0.2525E+02  0.1458E+03
     -0.304  0.1079E+02  0.1475E+03
     -0.206  0.6204E+01  0.1491E+03
     -0.107  0.2046E+02  0.1514E+03
     -0.009  0.5381E+01  0.1538E+03
      0.089  0.4207E+02  0.1563E+03
      0.188  0.3931E+02  0.1597E+03
      0.286  0.0000E+00  0.1620E+03
      0.385  0.1396E+02  0.1632E+03
      0.483  0.2227E+02  0.1660E+03
      0.582  0.1684E+02  0.1682E+03
      0.680  0.2277E+02  0.1700E+03
      0.779  0.3063E+02  0.1722E+03
      0.877  0.1673E+02  0.1748E+03
      0.976  0.1691E+02  0.1766E+03
      1.074  0.2932E+02  0.1792E+03
      1.173  0.2499E+02  0.1824E+03
      1.271  0.3155E+02  0.1863E+03
      1.370  0.2953E+02  0.1899E+03
      1.468  0.4321E+02  0.1934E+03
      1.567  0.3434E+02  0.1974E+03
      1.665  0.1275E+02  0.2000E+03
      1.763  0.6421E+01  0.2006E+03
      1.862  0.1057E+02  0.2019E+03
      1.960  0.3079E+01  0.2025E+03
      2.059  0.0000E+00  0.2040E+03
      2.157  0.0000E+00  0.2040E+03
      2.256  0.0000E+00  0.2040E+03
      2.354  0.0000E+00  0.2040E+03
      2.453  0.0000E+00  0.2040E+03
      2.551  0.0000E+00  0.2040E+03
      2.650  0.0000E+00  0.2040E+03
      2.748  0.0000E+00  0.2040E+03
      2.847  0.0000E+00  0.2040E+03
      2.945  0.0000E+00  0.2040E+03
      3.044  0.0000E+00  0.2040E+03
      3.142  0.0000E+00  0.2040E+03
      3.241  0.0000E+00  0.2040E+03
      3.339  0.0000E+00  0.2040E+03
      3.438  0.0000E+00  0.2040E+03
      3.536  0.0000E+00  0.2040E+03
      3.634  0.0000E+00  0.2040E+03
      3.733  0.0000E+00  0.2040E+03
      3.831  0.0000E+00  0.2040E+03
      3.930  0.0000E+00  0.2040E+03
      4.028  0.0000E+00  0.2040E+03
