 vasp.5.4.4.18Apr17-6-g9f103f2a35 (build Jun 08 2018 12:06:12) complex          
  
 executed on             LinuxIFC date 2019.06.06  07:22:22
 running on   72 total cores
 distrk:  each k-point on   72 cores,    1 groups
 distr:  one band on NCORES_PER_BAND=  24 cores,    3 groups


--------------------------------------------------------------------------------------------------------


 INCAR:
 POTCAR:    PAW_PBE Mg 13Apr2007                  
 POTCAR:    PAW_PBE O 08Apr2002                   
 POTCAR:    PAW_PBE H 15Jun2001                   

 ----------------------------------------------------------------------------- 
|                                                                             |
|           W    W    AA    RRRRR   N    N  II  N    N   GGGG   !!!           |
|           W    W   A  A   R    R  NN   N  II  NN   N  G    G  !!!           |
|           W    W  A    A  R    R  N N  N  II  N N  N  G       !!!           |
|           W WW W  AAAAAA  RRRRR   N  N N  II  N  N N  G  GGG   !            |
|           WW  WW  A    A  R   R   N   NN  II  N   NN  G    G                |
|           W    W  A    A  R    R  N    N  II  N    N   GGGG   !!!           |
|                                                                             |
|      For optimal performance we recommend to set                            |
|        NCORE= 4 - approx SQRT( number of cores)                             |
|      NCORE specifies how many cores store one orbital (NPAR=cpu/NCORE).     |
|      This setting can  greatly improve the performance of VASP for DFT.     |
|      The default,   NCORE=1            might be grossly inefficient         |
|      on modern multi-core architectures or massively parallel machines.     |
|      Do your own testing !!!!                                               |
|      Unfortunately you need to use the default for GW and RPA calculations. |
|      (for HF NCORE is supported but not extensively tested yet)             |
|                                                                             |
 ----------------------------------------------------------------------------- 


 ----------------------------------------------------------------------------- 
|                                                                             |
|  ADVICE TO THIS USER RUNNING 'VASP/VAMP'   (HEAR YOUR MASTER'S VOICE ...):  |
|                                                                             |
|      You have switched on vdW-DFT.                                          |
|      This routine was written and supplied by Jiri Klimes.                  |
|      We recommed that you carefully read and cite the following             |
|      publication                                                            |
|      J. Klimes, D.R. Bowler, A. Michelides                                  |
|        J. Phys.: Cond Matt. 22 022201 (2010)                                |
|      J. Klimes, D.R. Bowler, A. Michelides                                  |
|        Phys. Rev. B. 83, 195131 (2011)                                      |
|      and references therein.                                                |
|                                                                             |
 ----------------------------------------------------------------------------- 

 POTCAR:    PAW_PBE Mg 13Apr2007                  
   VRHFIN =Mg: s2p0                                                             
   LEXCH  = PE                                                                  
   EATOM  =    23.0369 eV,    1.6932 Ry                                         
                                                                                
   TITEL  = PAW_PBE Mg 13Apr2007                                                
   LULTRA =        F    use ultrasoft PP ?                                      
   IUNSCR =        1    unscreen: 0-lin 1-nonlin 2-no                           
   RPACOR =    1.500    partial core radius                                     
   POMASS =   24.305; ZVAL   =    2.000    mass and valenz                      
   RCORE  =    2.000    outmost cutoff radius                                   
   RWIGS  =    2.880; RWIGS  =    1.524    wigner-seitz radius (au A)           
   ENMAX  =  200.000; ENMIN  =  100.000 eV                                      
   RCLOC  =    1.506    cutoff for local pot                                    
   LCOR   =        T    correct aug charges                                     
   LPAW   =        T    paw PP                                                  
   EAUG   =  454.734                                                            
   DEXC   =    0.000                                                            
   RMAX   =    2.045    core radius for proj-oper                               
   RAUG   =    1.300    factor for augmentation sphere                          
   RDEP   =    2.025    radius for radial grids                                 
   RDEPT  =    1.942    core radius for aug-charge                              
                                                                                
   Atomic configuration                                                         
    6 entries                                                                   
     n  l   j            E        occ.                                          
     1  0  0.50     -1259.6230   2.0000                                         
     2  0  0.50       -79.8442   2.0000                                         
     2  1  1.50       -46.6121   6.0000                                         
     3  0  0.50        -4.7055   2.0000                                         
     3  1  0.50        -1.3660   0.0000                                         
     3  2  1.50        -1.3606   0.0000                                         
   Description                                                                  
     l       E           TYP  RCUT    TYP  RCUT                                 
     0     -4.7054661     23  2.000                                             
     0     27.2116520     23  2.000                                             
     1      1.3605826     23  2.000                                             
     1     27.2116520     23  2.000                                             
     2     -1.3605826     23  2.000                                             
  local pseudopotential read in
  partial core-charges read in
  partial kinetic energy density read in
  atomic valenz-charges read in
  non local Contribution for L=           0  read in
    real space projection operators read in
  non local Contribution for L=           0  read in
    real space projection operators read in
  non local Contribution for L=           1  read in
    real space projection operators read in
  non local Contribution for L=           1  read in
    real space projection operators read in
  non local Contribution for L=           2  read in
    real space projection operators read in
    PAW grid and wavefunctions read in
 
   number of l-projection  operators is LMAX  =           5
   number of lm-projection operators is LMMAX =          13
 
 POTCAR:    PAW_PBE O 08Apr2002                   
   VRHFIN =O: s2p4                                                              
   LEXCH  = PE                                                                  
   EATOM  =   432.3788 eV,   31.7789 Ry                                         
                                                                                
   TITEL  = PAW_PBE O 08Apr2002                                                 
   LULTRA =        F    use ultrasoft PP ?                                      
   IUNSCR =        1    unscreen: 0-lin 1-nonlin 2-no                           
   RPACOR =    1.200    partial core radius                                     
   POMASS =   16.000; ZVAL   =    6.000    mass and valenz                      
   RCORE  =    1.520    outmost cutoff radius                                   
   RWIGS  =    1.550; RWIGS  =    0.820    wigner-seitz radius (au A)           
   ENMAX  =  400.000; ENMIN  =  300.000 eV                                      
   ICORE  =        2    local potential                                         
   LCOR   =        T    correct aug charges                                     
   LPAW   =        T    paw PP                                                  
   EAUG   =  605.392                                                            
   DEXC   =    0.000                                                            
   RMAX   =    1.553    core radius for proj-oper                               
   RAUG   =    1.300    factor for augmentation sphere                          
   RDEP   =    1.550    radius for radial grids                                 
   RDEPT  =    1.329    core radius for aug-charge                              
                                                                                
   Atomic configuration                                                         
    4 entries                                                                   
     n  l   j            E        occ.                                          
     1  0  0.50      -514.6923   2.0000                                         
     2  0  0.50       -23.9615   2.0000                                         
     2  1  0.50        -9.0305   4.0000                                         
     3  2  1.50        -9.5241   0.0000                                         
   Description                                                                  
     l       E           TYP  RCUT    TYP  RCUT                                 
     0    -23.9615318     23  1.200                                             
     0     -9.5240782     23  1.200                                             
     1     -9.0304911     23  1.520                                             
     1      8.1634956     23  1.520                                             
     2     -9.5240782      7  1.500                                             
  local pseudopotential read in
  partial core-charges read in
  partial kinetic energy density read in
  kinetic energy density of atom read in
  atomic valenz-charges read in
  non local Contribution for L=           0  read in
    real space projection operators read in
  non local Contribution for L=           0  read in
    real space projection operators read in
  non local Contribution for L=           1  read in
    real space projection operators read in
  non local Contribution for L=           1  read in
    real space projection operators read in
    PAW grid and wavefunctions read in
 
   number of l-projection  operators is LMAX  =           4
   number of lm-projection operators is LMMAX =           8
 
 POTCAR:    PAW_PBE H 15Jun2001                   
   VRHFIN =H: ultrasoft test                                                    
   LEXCH  = PE                                                                  
   EATOM  =    12.4884 eV,    0.9179 Ry                                         
                                                                                
   TITEL  = PAW_PBE H 15Jun2001                                                 
   LULTRA =        F    use ultrasoft PP ?                                      
   IUNSCR =        0    unscreen: 0-lin 1-nonlin 2-no                           
   RPACOR =    0.000    partial core radius                                     
   POMASS =    1.000; ZVAL   =    1.000    mass and valenz                      
   RCORE  =    1.100    outmost cutoff radius                                   
   RWIGS  =    0.700; RWIGS  =    0.370    wigner-seitz radius (au A)           
   ENMAX  =  250.000; ENMIN  =  200.000 eV                                      
   RCLOC  =    0.701    cutoff for local pot                                    
   LCOR   =        T    correct aug charges                                     
   LPAW   =        T    paw PP                                                  
   EAUG   =  400.000                                                            
   RMAX   =    1.123    core radius for proj-oper                               
   RAUG   =    1.200    factor for augmentation sphere                          
   RDEP   =    1.112    radius for radial grids                                 
   RDEPT  =    0.926    core radius for aug-charge                              
                                                                                
   Atomic configuration                                                         
    2 entries                                                                   
     n  l   j            E        occ.                                          
     1  0  0.50        -6.4927   1.0000                                         
     2  1  0.50        -3.4015   0.0000                                         
   Description                                                                  
     l       E           TYP  RCUT    TYP  RCUT                                 
     0     -6.4927494     23  1.100                                             
     0      6.8029130     23  1.100                                             
     1     -4.0817478     23  1.100                                             
  local pseudopotential read in
  atomic valenz-charges read in
  non local Contribution for L=           0  read in
    real space projection operators read in
  non local Contribution for L=           0  read in
    real space projection operators read in
  non local Contribution for L=           1  read in
    real space projection operators read in
    PAW grid and wavefunctions read in
 
   number of l-projection  operators is LMAX  =           3
   number of lm-projection operators is LMMAX =           5
 
 Optimization of the real space projectors (new method)

 maximal supplied QI-value         = 18.90
 optimisation between [QCUT,QGAM] = [ 11.53, 23.24] = [ 37.21,151.29] Ry 
 Optimized for a Real-space Cutoff    1.28 Angstroem

   l    n(q)    QCUT    max X(q) W(low)/X(q) W(high)/X(q)  e(spline) 
   0      9    11.527    28.265    0.62E-04    0.53E-04    0.73E-07
   0      9    11.527    10.429    0.52E-04    0.40E-04    0.58E-07
   1      8    11.527    13.073    0.98E-04    0.18E-03    0.86E-07
   1      8    11.527     9.625    0.79E-04    0.15E-03    0.74E-07
   2      8    11.527     4.652    0.22E-03    0.72E-04    0.47E-07
 Optimization of the real space projectors (new method)

 maximal supplied QI-value         = 24.76
 optimisation between [QCUT,QGAM] = [ 11.64, 23.27] = [ 37.91,151.63] Ry 
 Optimized for a Real-space Cutoff    1.14 Angstroem

   l    n(q)    QCUT    max X(q) W(low)/X(q) W(high)/X(q)  e(spline) 
   0      8    11.635    20.381    0.10E-03    0.33E-03    0.24E-06
   0      8    11.635    15.268    0.11E-03    0.35E-03    0.26E-06
   1      7    11.635     5.964    0.24E-03    0.31E-03    0.30E-06
   1      7    11.635     5.382    0.22E-03    0.25E-03    0.26E-06
 Optimization of the real space projectors (new method)

 maximal supplied QI-value         = 34.20
 optimisation between [QCUT,QGAM] = [ 11.63, 23.26] = [ 37.87,151.49] Ry 
 Optimized for a Real-space Cutoff    1.21 Angstroem

   l    n(q)    QCUT    max X(q) W(low)/X(q) W(high)/X(q)  e(spline) 
   0      8    11.629    19.460    0.17E-03    0.34E-03    0.21E-06
   0      8    11.629    12.209    0.16E-03    0.33E-03    0.21E-06
   1      8    11.629     4.655    0.18E-03    0.16E-03    0.26E-06

 ----------------------------------------------------------------------------- 
|                                                                             |
|  ADVICE TO THIS USER RUNNING 'VASP/VAMP'   (HEAR YOUR MASTER'S VOICE ...):  |
|                                                                             |
|      You enforced a specific xc-type in the INCAR file,                     |
|      a different type was found on the POTCAR file                          |
|          I HOPE YOU KNOW, WHAT YOU ARE  DOING                               |
|                                                                             |
 ----------------------------------------------------------------------------- 

  PAW_PBE Mg 13Apr2007                  :
 energy of atom  1       EATOM=  -23.0369
 kinetic energy error for atom=    0.0000 (will be added to EATOM!!)
  PAW_PBE O 08Apr2002                   :
 energy of atom  2       EATOM= -432.3788
 kinetic energy error for atom=    0.0208 (will be added to EATOM!!)
  PAW_PBE H 15Jun2001                   :
 energy of atom  3       EATOM=  -12.4884
 kinetic energy error for atom=    0.0014 (will be added to EATOM!!)
 
 
 POSCAR: Mg   O    H                             
  positions in direct lattice
  velocities in cartesian coordinates
 exchange correlation table for  LEXCH =       42
   RHO(1)=    0.500       N(1)  =     2000
   RHO(2)=  100.500       N(2)  =     4000

 VTST: version 3.2, (02/03/18)

 CHAIN: initializing optimizer
 
 OPT: Using VASP Dynamics algorithm
 CHAIN: Read ICHAIN            0
 
 POSCAR: Mg   O    H                             
  positions in direct lattice
  velocities in cartesian coordinates
 


--------------------------------------------------------------------------------------------------------


 ion  position               nearest neighbor table
   1  0.000  0.000  0.000-   7 3.19  25 3.19  19 3.19  10 3.19   4 3.19  13 3.19  44 3.19  32 3.19
                            28 3.19
   2  0.999  0.998  0.159-  29 3.10  33 3.11  44 3.15  32 3.15  28 3.17  26 3.17   8 3.17  20 3.18
                            11 3.18  14 3.19   5 3.20  45 3.22
   3  0.002  0.000  0.330-  46 2.11  15 3.10  27 3.17  12 3.22   9 3.22  21 3.25   6 3.25  45 3.47
                            33 3.56  29 3.57
   4  0.000  0.333  0.000-  22 3.19  13 3.19  19 3.19  16 3.19   1 3.19   7 3.19  40 3.19  30 3.19
                            28 3.19
   5  1.000  0.333  0.157-  40 3.13  28 3.13  30 3.13  29 3.14  41 3.15  17 3.17  31 3.18   8 3.18
                            14 3.19  23 3.19  20 3.20   2 3.20
   6  0.993  0.330  0.312-  31 3.09  41 3.09  21 3.11  29 3.12  24 3.14   9 3.17  15 3.18  18 3.24
                             3 3.25
   7  0.000  0.667  0.000-   1 3.19  10 3.19  25 3.19  16 3.19  22 3.19   4 3.19  42 3.19  32 3.19
                            30 3.19
   8  0.998  0.666  0.158-  33 3.13  42 3.14  30 3.15  32 3.15  26 3.16  31 3.17  23 3.17   2 3.17
                            11 3.18   5 3.18  17 3.19  43 3.29
   9  0.005  0.669  0.315-  18 3.08  43 3.09  12 3.10  31 3.14  33 3.15   6 3.17  27 3.21   3 3.22
                            24 3.34
  10  0.333  0.000  0.000-  16 3.19   7 3.19  19 3.19   1 3.19  22 3.19  13 3.19  32 3.19  34 3.19
                            38 3.19
  11  0.332  0.998  0.158-  32 3.13  38 3.13  34 3.14  33 3.16  35 3.16  14 3.18  17 3.18   2 3.18
                             8 3.18  39 3.18  20 3.20  23 3.20
  12  0.329  0.993  0.311-  33 3.05  39 3.06  35 3.09   9 3.10  15 3.16  18 3.16  24 3.18  21 3.19
                             3 3.22
  13  0.333  0.333  0.000-  22 3.19   4 3.19  10 3.19   1 3.19  25 3.19  16 3.19  28 3.19  36 3.19
                            34 3.19
  14  0.332  0.331  0.157-  34 3.11  28 3.11  36 3.13  37 3.15  29 3.17  35 3.17  23 3.18  11 3.18
                             2 3.19   5 3.19  17 3.20  26 3.20
  15  0.319  0.318  0.311-  61 1.93  29 3.03  35 3.07   3 3.10  37 3.15  12 3.16   6 3.18  24 3.31
                            27 3.38  18 3.38
  16  0.333  0.667  0.000-  10 3.19  19 3.19   7 3.19  25 3.19   4 3.19  13 3.19  38 3.19  30 3.19
                            36 3.19
  17  0.332  0.666  0.158-  39 3.12  37 3.12  31 3.13  30 3.14  36 3.15  38 3.16   5 3.17  11 3.18
                            20 3.18   8 3.19  14 3.20  26 3.21
  18  0.321  0.666  0.332-  61 1.95  51 2.07   9 3.08  12 3.16   6 3.24  21 3.32  27 3.33  15 3.38
                            31 3.54  39 3.59
  19  0.667  0.000  0.000-  25 3.19  16 3.19   1 3.19  10 3.19   4 3.19  22 3.19  38 3.19  44 3.19
                            40 3.19
  20  0.666  0.998  0.158-  41 3.12  44 3.13  38 3.13  40 3.15  39 3.16   2 3.18  26 3.18  17 3.18
                            11 3.20   5 3.20  23 3.21  45 3.27
  21  0.668  0.004  0.314-  24 3.06  45 3.06   6 3.11  41 3.12  39 3.13  12 3.19  27 3.23   3 3.25
                            18 3.32
  22  0.667  0.333  0.000-  13 3.19   4 3.19  10 3.19  25 3.19   7 3.19  19 3.19  34 3.19  42 3.19
                            40 3.19
  23  0.666  0.334  0.159-  41 3.09  35 3.11  42 3.16  34 3.16  26 3.16  40 3.17   8 3.17  14 3.18
                             5 3.19  11 3.20  20 3.21  43 3.22
  24  0.661  0.318  0.326-  49 2.13  21 3.06   6 3.14  12 3.18  15 3.31  27 3.31   9 3.34  43 3.36
                            35 3.43  41 3.44
  25  0.667  0.667  0.000-   1 3.19  19 3.19   7 3.19  16 3.19  22 3.19  13 3.19  36 3.19  42 3.19
                            44 3.19
  26  0.668  0.666  0.159-  37 3.10  42 3.16   8 3.16  23 3.16   2 3.17  44 3.17  36 3.17  20 3.18
                            14 3.20  45 3.20  17 3.21  43 3.25
  27  0.670  0.669  0.324-  61 1.96  50 2.03   3 3.17   9 3.21  21 3.23  43 3.26  45 3.26  24 3.31
                            18 3.33  15 3.38  37 3.44
  28  0.111  0.222  0.080-  14 3.11   5 3.13   2 3.17  44 3.19  32 3.19  40 3.19  34 3.19  36 3.19
                            30 3.19   1 3.19  13 3.19   4 3.19
  29  0.107  0.219  0.235-  15 3.03   2 3.10   6 3.12   5 3.14  14 3.17  33 3.17  45 3.17  41 3.18
                            31 3.19  37 3.22  35 3.22   3 3.57
  30  0.111  0.556  0.080-   5 3.13  17 3.14   8 3.15  32 3.19  42 3.19  38 3.19  40 3.19  36 3.19
                            28 3.19  16 3.19   7 3.19   4 3.19
  31  0.114  0.556  0.237-   6 3.09  39 3.13  17 3.13   9 3.14  37 3.17   8 3.17   5 3.18  33 3.19
                            29 3.19  41 3.23  43 3.24  18 3.54
  32  0.111  0.889  0.080-  11 3.13   8 3.15   2 3.15  28 3.19  34 3.19  44 3.19  30 3.19  42 3.19
                            38 3.19  10 3.19   1 3.19   7 3.19
  33  0.107  0.887  0.236-  12 3.05   2 3.11   8 3.13  45 3.14   9 3.15  11 3.16  29 3.17  31 3.19
                            35 3.22  43 3.22  39 3.23   3 3.56
  34  0.444  0.222  0.080-  14 3.11  11 3.14  23 3.16  38 3.19  40 3.19  32 3.19  42 3.19  28 3.19
                            36 3.19  22 3.19  10 3.19  13 3.19
  35  0.446  0.222  0.236-  15 3.07  12 3.09  23 3.11  43 3.12  41 3.15  11 3.16  14 3.17  37 3.18
                            33 3.22  29 3.22  39 3.24  24 3.43
  36  0.444  0.556  0.080-  14 3.13  17 3.15  26 3.17  42 3.19  38 3.19  44 3.19  30 3.19  28 3.19
                            34 3.19  25 3.19  13 3.19  16 3.19
  37  0.444  0.554  0.235-  26 3.10  17 3.12  39 3.14  15 3.15  14 3.15  43 3.16  31 3.17  45 3.17
                            35 3.18  29 3.22  27 3.44
  38  0.444  0.889  0.080-  11 3.13  20 3.13  17 3.16  40 3.19  34 3.19  44 3.19  36 3.19  30 3.19
                            32 3.19  19 3.19  16 3.19  10 3.19
  39  0.444  0.882  0.236-  12 3.06  17 3.12  31 3.13  21 3.13  37 3.14  20 3.16  11 3.18  45 3.19
                            41 3.19  33 3.23  35 3.24  18 3.59
  40  0.778  0.222  0.080-   5 3.13  20 3.15  23 3.17  38 3.19  34 3.19  44 3.19  28 3.19  30 3.19
                            42 3.19   4 3.19  19 3.19  22 3.19
  41  0.775  0.220  0.235-  23 3.09   6 3.09  20 3.12  21 3.12   5 3.15  35 3.15  43 3.17  29 3.18
                            39 3.19  31 3.23  45 3.23  24 3.44
  42  0.778  0.556  0.080-   8 3.14  26 3.16  23 3.16  36 3.19  44 3.19  30 3.19  32 3.19  34 3.19
                            40 3.19  25 3.19   7 3.19  22 3.19
  43  0.772  0.549  0.241-   9 3.09  35 3.12  37 3.16  41 3.17  45 3.17  33 3.22  23 3.22  31 3.24
                            26 3.25  27 3.26   8 3.29  24 3.36
  44  0.778  0.889  0.080-  20 3.13   2 3.15  26 3.17  28 3.19  40 3.19  42 3.19  32 3.19  38 3.19
                            36 3.19   1 3.19  19 3.19  25 3.19
  45  0.778  0.884  0.240-  21 3.06  33 3.14  43 3.17  29 3.17  37 3.17  39 3.19  26 3.20   2 3.22
                            41 3.23  27 3.26  20 3.27   3 3.47
  46  0.999  0.995  0.394-  52 0.99  53 1.00   3 2.11
  47  0.287  0.008  0.416-  54 0.98  55 0.99
  48  0.899  0.216  0.416-  56 0.98  57 1.00
  49  0.621  0.348  0.389-  59 0.98  58 1.05  24 2.13
  50  0.641  0.628  0.385-  60 0.98  27 2.03
  51  0.391  0.666  0.392-  62 0.97  63 1.04  18 2.07
  52  0.971  0.072  0.408-  46 0.99
  53  0.101  0.009  0.407-  46 1.00
  54  0.382  0.112  0.409-  47 0.98
  55  0.275  0.940  0.392-  47 0.99
  56  0.995  0.323  0.416-  48 0.98
  57  0.856  0.204  0.388-  48 1.00
  58  0.629  0.461  0.391-  49 1.05
  59  0.696  0.344  0.408-  49 0.98
  60  0.736  0.709  0.400-  50 0.98
  61  0.434  0.549  0.319-  15 1.93  18 1.95  27 1.96
  62  0.406  0.753  0.410-  51 0.97
  63  0.492  0.654  0.393-  51 1.04
 
  LATTYP: Found a hexagonal cell.
 ALAT       =     9.5557527542
 C/A-ratio  =     3.4141837076
  
  Lattice vectors:
  
 A1 = (   9.5557527542,   0.0000000000,   0.0000000000)
 A2 = (  -4.7778763771,   8.2755246374,   0.0000000000)
 A3 = (   0.0000000000,   0.0000000000,  32.6250953674)


Analysis of symmetry for initial positions (statically):
=====================================================================
 Subroutine PRICEL returns:
 Original cell was already a primitive cell.
 

 Routine SETGRP: Setting up the symmetry group for a 
 hexagonal supercell.


 Subroutine GETGRP returns: Found  1 space group operations
 (whereof  1 operations were pure point group operations)
 out of a pool of 24 trial point group operations.


The static configuration has the point symmetry C_1 .


Analysis of symmetry for dynamics (positions and initial velocities):
=====================================================================
 Subroutine PRICEL returns:
 Original cell was already a primitive cell.
 

 Routine SETGRP: Setting up the symmetry group for a 
 hexagonal supercell.


 Subroutine GETGRP returns: Found  1 space group operations
 (whereof  1 operations were pure point group operations)
 out of a pool of 24 trial point group operations.


The dynamic configuration has the point symmetry C_1 .


Analysis of constrained symmetry for selective dynamics:
=====================================================================
 Subroutine PRICEL returns:
 Original cell was already a primitive cell.
 

 Routine SETGRP: Setting up the symmetry group for a 
 hexagonal supercell.


 Subroutine GETGRP returns: Found  1 space group operations
 (whereof  1 operations were pure point group operations)
 out of a pool of 24 trial point group operations.


The constrained configuration has the point symmetry C_1 .


 Subroutine INISYM returns: Found  1 space group operations
 (whereof  1 operations are pure point group operations),
 and found     1 'primitive' translations

 
 
 KPOINTS: Auto                                    

Automatic generation of k-mesh.
Space group operators:
 irot       det(A)        alpha          n_x          n_y          n_z        tau_x        tau_y        tau_z
    1     1.000000     0.000000     1.000000     0.000000     0.000000     0.000000     0.000000     0.000000
 
 Subroutine IBZKPT returns following result:
 ===========================================
 
 Found      5 irreducible k-points:
 
 Following reciprocal coordinates:
            Coordinates               Weight
  0.000000  0.000000  0.000000      1.000000
  0.333333 -0.000000  0.000000      2.000000
  0.000000  0.333333  0.000000      2.000000
  0.333333  0.333333  0.000000      2.000000
 -0.333333  0.333333  0.000000      2.000000
 
 Following cartesian coordinates:
            Coordinates               Weight
  0.000000  0.000000  0.000000      1.000000
  0.034883  0.020140  0.000000      2.000000
  0.000000  0.040279  0.000000      2.000000
  0.034883  0.060419  0.000000      2.000000
 -0.034883  0.020140  0.000000      2.000000
 
 TETIRR: Found     24 inequivalent tetrahedra from       54


--------------------------------------------------------------------------------------------------------




 Dimension of arrays:
   k-points           NKPTS =      5   k-points in BZ     NKDIM =      5   number of bands    NBANDS=    102
   number of dos      NEDOS =    301   number of ions     NIONS =     63
   non local maximal  LDIM  =      5   non local SUM 2l+1 LMDIM =     13
   total plane-waves  NPLWV = ******
   max r-space proj   IRMAX =   4509   max aug-charges    IRDMAX=  21536
   dimension x,y,z NGX =    72 NGY =   72 NGZ =  250
   dimension x,y,z NGXF=   144 NGYF=  144 NGZF=  500
   support grid    NGXF=   144 NGYF=  144 NGZF=  500
   ions per type =              45   6  12
   NGX,Y,Z   is equivalent  to a cutoff of  12.53, 12.53, 12.74 a.u.
   NGXF,Y,Z  is equivalent  to a cutoff of  25.05, 25.05, 25.48 a.u.

 SYSTEM =  Mg_slab_in_a_box                        
 POSCAR =  Mg   O    H                             

 Startparameter for this run:
   NWRITE =      2    write-flag & timer
   PREC   = accura    normal or accurate (medium, high low for compatibility)
   ISTART =      0    job   : 0-new  1-cont  2-samecut
   ICHARG =      2    charge: 1-file 2-atom 10-const
   ISPIN  =      1    spin polarized calculation?
   LNONCOLLINEAR =      F non collinear calculations
   LSORBIT =      F    spin-orbit coupling
   INIWAV =      1    electr: 0-lowe 1-rand  2-diag
   LASPH  =      T    aspherical Exc in radial PAW
   METAGGA=      F    non-selfconsistent MetaGGA calc.

 Electronic Relaxation 1
   ENCUT  =  520.0 eV  38.22 Ry    6.18 a.u.  17.77 17.77 60.66*2*pi/ulx,y,z
   ENINI  =  520.0     initial cutoff
   ENAUG  =  605.4 eV  augmentation charge cutoff
   NELM   =    300;   NELMIN=  6; NELMDL=-12     # of ELM steps 
   EDIFF  = 0.5E-05   stopping-criterion for ELM
   LREAL  =      T    real-space projection
   NLSPLINE    = F    spline interpolate recip. space projectors
   LCOMPAT=      F    compatible to vasp.4.4
   GGA_COMPAT  = T    GGA compatible to vasp.4.4-vasp.4.6
   LMAXPAW     = -100 max onsite density
   LMAXMIX     =    2 max onsite mixed and CHGCAR
   VOSKOWN=      0    Vosko Wilk Nusair interpolation
   ROPT   =   -0.00025  -0.00025  -0.00025
 Ionic relaxation
   EDIFFG = 0.5E-04   stopping-criterion for IOM
   NSW    =      0    number of steps for IOM
   NBLOCK =      1;   KBLOCK =      1    inner block; outer block 
   IBRION =     -1    ionic relax: 0-MD 1-quasi-New 2-CG
   NFREE  =      0    steps in history (QN), initial steepest desc. (CG)
   ISIF   =      2    stress and relaxation
   IWAVPR =     10    prediction:  0-non 1-charg 2-wave 3-comb
   ISYM   =      2    0-nonsym 1-usesym 2-fastsym
   LCORR  =      T    Harris-Foulkes like correction to forces

   POTIM  = 0.5000    time-step for ionic-motion
   TEIN   =    0.0    initial temperature
   TEBEG  =    0.0;   TEEND  =   0.0 temperature during run
   SMASS  =  -3.00    Nose mass-parameter (am)
   estimated Nose-frequenzy (Omega)   =  0.10E-29 period in steps =****** mass=  -0.209E-26a.u.
   SCALEE = 1.0000    scale energy and forces
   NPACO  =    256;   APACO  = 16.0  distance and # of slots for P.C.
   PSTRESS=    0.0 pullay stress

  Mass of Ions in am
   POMASS =  24.30 16.00  1.00
  Ionic Valenz
   ZVAL   =   2.00  6.00  1.00
  Atomic Wigner-Seitz radii
   RWIGS  =  -1.00 -1.00 -1.00
  virtual crystal weights 
   VCA    =   1.00  1.00  1.00
   NELECT =     138.0000    total number of electrons
   NUPDOWN=      -1.0000    fix difference up-down

 DOS related values:
   EMIN   =  10.00;   EMAX   =-10.00  energy-range for DOS
   EFERMI =   0.00
   ISMEAR =    -5;   SIGMA  =   0.20  broadening in eV -4-tet -1-fermi 0-gaus

 Electronic relaxation 2 (details)
   IALGO  =     48    algorithm
   LDIAG  =      T    sub-space diagonalisation (order eigenvalues)
   LSUBROT=      F    optimize rotation matrix (better conditioning)
   TURBO    =      0    0=normal 1=particle mesh
   IRESTART =      0    0=no restart 2=restart with 2 vectors
   NREBOOT  =      0    no. of reboots
   NMIN     =      0    reboot dimension
   EREF     =   0.00    reference energy to select bands
   IMIX   =      4    mixing-type and parameters
     AMIX     =   0.40;   BMIX     =  1.00
     AMIX_MAG =   1.60;   BMIX_MAG =  1.00
     AMIN     =   0.10
     WC   =   100.;   INIMIX=   1;  MIXPRE=   1;  MAXMIX= -45

 Intra band minimization:
   WEIMIN = 0.0000     energy-eigenvalue tresh-hold
   EBREAK =  0.12E-07  absolut break condition
   DEPER  =   0.30     relativ break condition  

   TIME   =   0.40     timestep for ELM

  volume/ion in A,a.u.               =      40.95       276.36
  Fermi-wavevector in a.u.,A,eV,Ry     =   0.616828  1.165635  5.176694  0.380476
  Thomas-Fermi vector in A             =   1.674695
 
 Write flags
   LWAVE        =      F    write WAVECAR
   LDOWNSAMPLE  =      F    k-point downsampling of WAVECAR
   LCHARG       =      T    write CHGCAR
   LVTOT        =      F    write LOCPOT, total local potential
   LVHAR        =      T    write LOCPOT, Hartree potential only
   LELF         =      F    write electronic localiz. function (ELF)
   LORBIT       =      0    0 simple, 1 ext, 2 COOP (PROOUT), +10 PAW based schemes


 Dipole corrections
   LMONO  =      F    monopole corrections only (constant potential shift)
   LDIPOL =      T    correct potential (dipole corrections)
   IDIPOL =      3    1-x, 2-y, 3-z, 4-all directions 
   EPSILON=  1.0000000 bulk dielectric constant

 Exchange correlation treatment:
   GGA     =    BO    GGA type
   LEXCH   =    42    internal setting for exchange type
   VOSKOWN=      0    Vosko Wilk Nusair interpolation
   LHFCALC =     F    Hartree Fock is set to
   LHFONE  =     F    Hartree Fock one center treatment
   AEXX    =    0.0000 exact exchange contribution

 vdW DFT:
   LUSE_VDW   =     T    switch on vdW DFT
   Zab_VDW    =-.8491    correlation parameter
   PARAM1     =0.1833
   PARAM2     =0.2200
   PARAM3     =0.0000
   -- rVV10 --
   BPARAM     = 6.3000
   CPARAM     = 0.0093

 Linear response parameters
   LEPSILON=     F    determine dielectric tensor
   LRPA    =     F    only Hartree local field effects (RPA)
   LNABLA  =     F    use nabla operator in PAW spheres
   LVEL    =     F    velocity operator in full k-point grid
   LINTERFAST=   F  fast interpolation
   KINTER  =     0    interpolate to denser k-point grid
   CSHIFT  =0.1000    complex shift for real part using Kramers Kronig
   OMEGAMAX=  -1.0    maximum frequency
   DEG_THRESHOLD= 0.2000000E-02 threshold for treating states as degnerate
   RTIME   =   -0.100 relaxation time in fs
  (WPLASMAI=    0.000 imaginary part of plasma frequency in eV, 0.658/RTIME)
   DFIELD  = 0.0000000 0.0000000 0.0000000 field for delta impulse in time
 
 Orbital magnetization related:
   ORBITALMAG=     F  switch on orbital magnetization
   LCHIMAG   =     F  perturbation theory with respect to B field
   DQ        =  0.001000  dq finite difference perturbation B field
   LLRAUG    =     F  two centre corrections for induced B field



--------------------------------------------------------------------------------------------------------


 Static calculation
 charge density and potential will be updated during run
 non-spin polarized calculation
 RMM-DIIS sequential band-by-band
 perform sub-space diagonalisation
    before iterative eigenvector-optimisation
 modified Broyden-mixing scheme, WC =      100.0
 initial mixing is a Kerker type mixing with AMIX =  0.4000 and BMIX =      1.0000
 Hartree-type preconditioning will be used
 using additional bands           33
 real space projection scheme for non local part
 use partial core corrections
 calculate Harris-corrections to forces 
   (improved forces if not selfconsistent)
 use gradient corrections 
 use of overlap-Matrix (Vanderbilt PP)
 Fermi weights with tetrahedron method with Bloechl corrections


--------------------------------------------------------------------------------------------------------


  energy-cutoff  :      520.00
  volume of cell :     2579.96
      direct lattice vectors                 reciprocal lattice vectors
     9.555752754  0.000000000  0.000000000     0.104649003  0.060419130  0.000000000
    -4.777876377  8.275524637  0.000000000     0.000000000  0.120838260  0.000000000
     0.000000000  0.000000000 32.625095367     0.000000000  0.000000000  0.030651251

  length of vectors
     9.555752754  9.555752754 32.625095367     0.120838260  0.120838260  0.030651251


 
 k-points in units of 2pi/SCALE and weight: Auto                                    
   0.00000000  0.00000000  0.00000000       0.111
   0.03488300  0.02013971  0.00000000       0.222
   0.00000000  0.04027942  0.00000000       0.222
   0.03488300  0.06041913  0.00000000       0.222
  -0.03488300  0.02013971  0.00000000       0.222
 
 k-points in reciprocal lattice and weights: Auto                                    
   0.00000000  0.00000000  0.00000000       0.111
   0.33333333 -0.00000000  0.00000000       0.222
   0.00000000  0.33333333  0.00000000       0.222
   0.33333333  0.33333333  0.00000000       0.222
  -0.33333333  0.33333333  0.00000000       0.222
 
 position of ions in fractional coordinates (direct lattice) 
   0.00000000  0.00000000  0.00000000
   0.99869516  0.99783861  0.15851697
   0.00184344  0.00007760  0.32992195
   0.00000001  0.33333336  0.00000000
   0.99993625  0.33324577  0.15737067
   0.99252856  0.33039194  0.31209637
   0.00000002  0.66666672  0.00000000
   0.99828151  0.66562072  0.15813614
   0.00520194  0.66851372  0.31513669
   0.33333334  0.00000000  0.00000000
   0.33184124  0.99815075  0.15761882
   0.32873286  0.99306000  0.31080444
   0.33333335  0.33333336  0.00000000
   0.33226913  0.33096931  0.15702704
   0.31914662  0.31844942  0.31099830
   0.33333336  0.66666672  0.00000000
   0.33194274  0.66553191  0.15820411
   0.32137552  0.66647891  0.33151097
   0.66666668  0.00000000  0.00000000
   0.66615363  0.99764376  0.15772639
   0.66832903  0.00431164  0.31354584
   0.66666668  0.33333336  0.00000000
   0.66615120  0.33402692  0.15876984
   0.66142291  0.31815412  0.32590683
   0.66666670  0.66666672  0.00000000
   0.66762985  0.66572113  0.15879064
   0.67037087  0.66889065  0.32357907
   0.11111113  0.22222222  0.07982145
   0.10661732  0.21854733  0.23543133
   0.11111114  0.55555561  0.07982145
   0.11409063  0.55644132  0.23673645
   0.11111116  0.88888894  0.07982145
   0.10745913  0.88699601  0.23597518
   0.44444450  0.22222222  0.07982145
   0.44585178  0.22234812  0.23606118
   0.44444450  0.55555561  0.07982145
   0.44427797  0.55396667  0.23523347
   0.44444451  0.88888894  0.07982145
   0.44360141  0.88248397  0.23628439
   0.77777779  0.22222222  0.07982145
   0.77457312  0.22001584  0.23500709
   0.77777781  0.55555561  0.07982145
   0.77194546  0.54938243  0.24108813
   0.77777784  0.88888894  0.07982145
   0.77781622  0.88395978  0.23989726
   0.99924531  0.99544976  0.39446639
   0.28670169  0.00815777  0.41571483
   0.89869826  0.21611484  0.41630683
   0.62094503  0.34825170  0.38862578
   0.64118465  0.62836246  0.38474633
   0.39080754  0.66635978  0.39176053
   0.97145373  0.07209164  0.40773189
   0.10073095  0.00915952  0.40694905
   0.38232645  0.11244520  0.40899480
   0.27468052  0.93977942  0.39173201
   0.99548457  0.32341535  0.41618196
   0.85639876  0.20437355  0.38787546
   0.62903131  0.46105191  0.39136568
   0.69612301  0.34400536  0.40826127
   0.73569033  0.70873329  0.39987030
   0.43411218  0.54914305  0.31879082
   0.40601820  0.75301314  0.41025175
   0.49212684  0.65356172  0.39346270
 
 position of ions in cartesian coordinates  (Angst):
   0.00000000  0.00000000  0.00000000
   4.77573447  8.25763798  5.17163114
   0.01724466  0.00064222 10.76373501
  -1.59262550  2.75850844  0.00000000
   7.96293646  2.75778361  5.13423314
   7.90578570  2.73416666 10.18217397
  -3.18525100  5.51701689  0.00000000
   6.35907778  5.50836063  5.15920659
  -3.14436749  5.53230180 10.28136448
   3.18525100  0.00000000  0.00000000
  -1.59804805  8.26022114  5.14232900
  -1.60342795  8.21809246 10.14002442
   1.59262550  2.75850844  0.00000000
   1.59375121  2.73894467  5.12302220
   1.52817427  2.63533602 10.14634931
  -0.00000001  5.51701689  0.00000000
  -0.00786641  5.50762574  5.16142409
  -0.11336887  5.51546264 10.81557687
   6.37050200  0.00000000  0.00000000
   1.59898087  8.25602550  5.14583852
   6.36578654  0.03568107 10.22946305
   4.77787638  2.75850844  0.00000000
   4.76963680  2.76424804  5.17988130
   4.80029274  2.63289230 10.63274153
   3.18525100  5.51701689  0.00000000
   3.19897248  5.50919164  5.18055966
   3.21002146  5.53542109 10.55679811
   0.00000017  1.83900547  2.60418248
  -0.02538340  1.80859380  7.68096944
  -1.59262550  4.59751415  2.60418248
  -1.56838600  4.60484384  7.72354918
  -3.18525076  7.35602236  2.60418248
  -3.21110435  7.34035730  7.69871267
   3.18525147  1.83900547  2.60418248
   3.19809754  1.84004737  7.70151854
   1.59262574  4.59751415  2.60418248
   1.59862623  4.58436479  7.67451447
   0.00000039  7.35602236  2.60418248
   0.02254607  7.30301780  7.70880068
   6.37050200  1.83900547  2.60418248
   6.35042077  1.82074647  7.66712859
   4.77787638  4.59751415  2.60418248
   4.75163864  4.54642780  7.86552310
   3.18525124  7.35602236  2.60418248
   3.20916890  7.31523097  7.82667089
   4.79240528  8.23786901 12.86950369
   2.70067367  0.06750984 13.56273606
   7.55516836  1.78846364 13.58205014
   4.26969364  2.88196553 12.67895307
   3.12476388  5.20002898 12.55238556
   0.55067557  5.51447679 12.78122481
   8.93852670  0.59659614 13.30229167
   0.91879702  0.07579984 13.27675150
   3.11616774  0.93054302 13.34349434
  -1.86537079  7.77716774 12.78029430
   7.96736582  2.67643171 13.57797627
   7.20706324  1.69129831 12.65447403
   3.80801866  3.81544646 12.76834270
   5.00836426  2.84682481 13.31956302
   3.64383489  5.86513977 13.04580658
   1.52453104  4.54444685 10.40058084
   0.28200588  6.23157878 13.38450245
   1.58000527  5.40856615 12.83675818
 


--------------------------------------------------------------------------------------------------------


 k-point  1 :   0.0000 0.0000 0.0000  plane waves:   69403
 k-point  2 :   0.3333-0.0000 0.0000  plane waves:   69509
 k-point  3 :   0.0000 0.3333 0.0000  plane waves:   69509
 k-point  4 :   0.3333 0.3333 0.0000  plane waves:   69474
 k-point  5 :  -0.3333 0.3333 0.0000  plane waves:   69509

 maximum and minimum number of plane-waves per node :      2924     2870

 maximum number of plane-waves:     69509
 maximum index in each direction: 
   IXMAX=   18   IYMAX=   17   IZMAX=   60
   IXMIN=  -18   IYMIN=  -18   IZMIN=  -60


 real space projection operators:
  total allocation   :      22581.84 KBytes
  max/ min on nodes  :       1312.02        531.32


 parallel 3D FFT for wavefunctions:
    minimum data exchange during FFTs selected (reduces bandwidth)
 parallel 3D FFT for charge:
    minimum data exchange during FFTs selected (reduces bandwidth)


 total amount of memory used by VASP MPI-rank0    62209. kBytes
=======================================================================

   base      :      30000. kBytes
   nonlr-proj:       6306. kBytes
   fftplans  :       6459. kBytes
   grid      :      11407. kBytes
   one-center:         24. kBytes
   wavefun   :       8013. kBytes
 
     INWAV:  cpu time    0.0001: real time    0.0015
 Broyden mixing: mesh for mixing (old mesh)
   NGX = 35   NGY = 35   NGZ =121
  (NGX  =144   NGY  =144   NGZ  =500)
  gives a total of 148225 points

 initial charge density was supplied:
 charge density of overlapping atoms calculated
 number of electron     138.0000000 magnetization 
 keeping initial charge density in first step


--------------------------------------------------------------------------------------------------------


 Maximum index for non-local projection operator          297
 Maximum index for augmentation-charges          837 (set IRDMAX)


--------------------------------------------------------------------------------------------------------


 First call to EWALD:  gamma=   0.129
 Maximum number of real-space cells 4x 4x 1
 Maximum number of reciprocal cells 2x 2x 6

    FEWALD:  cpu time    0.0096: real time    0.0096


--------------------------------------- Iteration      1(   1)  ---------------------------------------


vdW kernel read from vdw_kernel.bindat
  0.0000  0.2424  0.5071  0.7962  1.1119  1.4567  1.8333  2.2446  2.6937  3.1842
  3.7199  4.3049  4.9438  5.6415  6.4036  7.2358  8.1446  9.1372 10.2212 11.4050
 12.6979 14.1099 15.6519 17.3360 19.1751 21.1837 23.3773 25.7729 28.3892 31.2465
 34.3669 37.7748 41.4965 45.5611 50.0000
 
    POTLOK:  cpu time    9.9191: real time   10.0224
    SETDIJ:  cpu time    0.1370: real time    0.1370
    EDDIAG:  cpu time    2.0539: real time    2.0545
  RMM-DIIS:  cpu time    1.5939: real time    1.5941
    ORTHCH:  cpu time    0.3851: real time    0.3852
 BZINTS: Fermi energy:  9.553220;138.000000 electrons
         Band energy: 212.210465;  BLOECHL correction: -0.172236
       DOS:  cpu time    0.0043: real time    0.0043
    --------------------------------------------
      LOOP:  cpu time   14.0933: real time   14.1975

 eigenvalue-minimisations  :   510
 total energy-change (2. order) : 0.1241924E+04  (-0.2794372E+04)
 number of electron     138.0000000 magnetization 
 augmentation part      138.0000000 magnetization 

 DIPCOR: dipole corrections for dipol
 direction  3 min pos   356,
 dipolmoment           0.000000      0.000000     -0.000385 electrons x Angstroem
 Tr[quadrupol]     -1928.099166

 energy correction for charged system         0.000000 eV
 dipol+quadrupol energy correction           -0.000000 eV
 added-field ion interaction          0.003876 eV  (added to PSCEN)


 Free energy of the ion-electron system (eV)
  ---------------------------------------------------
  alpha Z        PSCENC =        63.16493893
  Ewald energy   TEWEN  =     13042.90576619
  -Hartree energ DENC   =    -16269.56889975
  -exchange      EXHF   =         0.00000000
  -V(xc)+E(xc)   XCENC  =     -2050.92190685
  PAW double counting   =      5135.15659847    -2719.01140655
  entropy T*S    EENTRO =         0.00000000
  eigenvalues    EBANDS =       212.21046510
  atomic energy  EATOM  =      3827.98814510
  Solvation  Ediel_sol  =         0.00000000
  ---------------------------------------------------
  free energy    TOTEN  =      1241.92370064 eV

  energy without entropy =     1241.92370064  energy(sigma->0) =     1241.92370064


--------------------------------------------------------------------------------------------------------




--------------------------------------- Iteration      1(   2)  ---------------------------------------


    EDDIAG:  cpu time    1.2746: real time    1.2936
  RMM-DIIS:  cpu time    1.4768: real time    1.4770
    ORTHCH:  cpu time    0.5110: real time    0.5110
 BZINTS: Fermi energy:  2.133250;138.000000 electrons
         Band energy:-484.039562;  BLOECHL correction: -0.310741
       DOS:  cpu time    0.0055: real time    0.0055
    --------------------------------------------
      LOOP:  cpu time    3.2679: real time    3.2871

 eigenvalue-minimisations  :   510
 total energy-change (2. order) :-0.6962500E+03  (-0.7558793E+03)
 number of electron     138.0000000 magnetization 
 augmentation part      138.0000000 magnetization 

 DIPCOR: dipole corrections for dipol
 direction  3 min pos   356,
 dipolmoment           0.000000      0.000000     -0.000385 electrons x Angstroem
 Tr[quadrupol]     -1928.099166

 energy correction for charged system         0.000000 eV
 dipol+quadrupol energy correction           -0.000000 eV
 added-field ion interaction          0.003876 eV  (added to PSCEN)


 Free energy of the ion-electron system (eV)
  ---------------------------------------------------
  alpha Z        PSCENC =        63.16493893
  Ewald energy   TEWEN  =     13042.90576619
  -Hartree energ DENC   =    -16269.56889975
  -exchange      EXHF   =         0.00000000
  -V(xc)+E(xc)   XCENC  =     -2050.92190685
  PAW double counting   =      5135.15659847    -2719.01140655
  entropy T*S    EENTRO =         0.00000000
  eigenvalues    EBANDS =      -484.03956221
  atomic energy  EATOM  =      3827.98814510
  Solvation  Ediel_sol  =         0.00000000
  ---------------------------------------------------
  free energy    TOTEN  =       545.67367333 eV

  energy without entropy =      545.67367333  energy(sigma->0) =      545.67367333


--------------------------------------------------------------------------------------------------------




--------------------------------------- Iteration      1(   3)  ---------------------------------------


    EDDIAG:  cpu time    1.5507: real time    1.5742
  RMM-DIIS:  cpu time    1.5795: real time    1.5797
    ORTHCH:  cpu time    0.4917: real time    0.4918
 BZINTS: Fermi energy:  0.389401;138.000000 electrons
         Band energy:-719.672749;  BLOECHL correction: -0.363180
       DOS:  cpu time    0.0042: real time    0.0042
    --------------------------------------------
      LOOP:  cpu time    3.6261: real time    3.6499

 eigenvalue-minimisations  :   510
 total energy-change (2. order) :-0.2356332E+03  (-0.2992467E+03)
 number of electron     138.0000000 magnetization 
 augmentation part      138.0000000 magnetization 

 DIPCOR: dipole corrections for dipol
 direction  3 min pos   356,
 dipolmoment           0.000000      0.000000     -0.000385 electrons x Angstroem
 Tr[quadrupol]     -1928.099166

 energy correction for charged system         0.000000 eV
 dipol+quadrupol energy correction           -0.000000 eV
 added-field ion interaction          0.003876 eV  (added to PSCEN)


 Free energy of the ion-electron system (eV)
  ---------------------------------------------------
  alpha Z        PSCENC =        63.16493893
  Ewald energy   TEWEN  =     13042.90576619
  -Hartree energ DENC   =    -16269.56889975
  -exchange      EXHF   =         0.00000000
  -V(xc)+E(xc)   XCENC  =     -2050.92190685
  PAW double counting   =      5135.15659847    -2719.01140655
  entropy T*S    EENTRO =         0.00000000
  eigenvalues    EBANDS =      -719.67274941
  atomic energy  EATOM  =      3827.98814510
  Solvation  Ediel_sol  =         0.00000000
  ---------------------------------------------------
  free energy    TOTEN  =       310.04048613 eV

  energy without entropy =      310.04048613  energy(sigma->0) =      310.04048613


--------------------------------------------------------------------------------------------------------




--------------------------------------- Iteration      1(   4)  ---------------------------------------


    EDDIAG:  cpu time    1.5919: real time    1.6160
  RMM-DIIS:  cpu time    1.6074: real time    1.6076
    ORTHCH:  cpu time    0.5249: real time    0.5249
 BZINTS: Fermi energy: -0.629452;138.000000 electrons
         Band energy:-890.126109;  BLOECHL correction: -0.069049
       DOS:  cpu time    0.0063: real time    0.0063
    --------------------------------------------
      LOOP:  cpu time    3.7304: real time    3.7548

 eigenvalue-minimisations  :   510
 total energy-change (2. order) :-0.1704534E+03  (-0.1469590E+03)
 number of electron     138.0000000 magnetization 
 augmentation part      138.0000000 magnetization 

 DIPCOR: dipole corrections for dipol
 direction  3 min pos   356,
 dipolmoment           0.000000      0.000000     -0.000385 electrons x Angstroem
 Tr[quadrupol]     -1928.099166

 energy correction for charged system         0.000000 eV
 dipol+quadrupol energy correction           -0.000000 eV
 added-field ion interaction          0.003876 eV  (added to PSCEN)


 Free energy of the ion-electron system (eV)
  ---------------------------------------------------
  alpha Z        PSCENC =        63.16493893
  Ewald energy   TEWEN  =     13042.90576619
  -Hartree energ DENC   =    -16269.56889975
  -exchange      EXHF   =         0.00000000
  -V(xc)+E(xc)   XCENC  =     -2050.92190685
  PAW double counting   =      5135.15659847    -2719.01140655
  entropy T*S    EENTRO =         0.00000000
  eigenvalues    EBANDS =      -890.12610902
  atomic energy  EATOM  =      3827.98814510
  Solvation  Ediel_sol  =         0.00000000
  ---------------------------------------------------
  free energy    TOTEN  =       139.58712652 eV

  energy without entropy =      139.58712652  energy(sigma->0) =      139.58712652


--------------------------------------------------------------------------------------------------------




--------------------------------------- Iteration      1(   5)  ---------------------------------------


    EDDIAG:  cpu time    1.5837: real time    1.6051
  RMM-DIIS:  cpu time    1.6021: real time    1.6023
    ORTHCH:  cpu time    0.5312: real time    0.5313
 BZINTS: Fermi energy: -1.315857;138.000000 electrons
         Band energy:***********;  BLOECHL correction: -0.107136
       DOS:  cpu time    0.0048: real time    0.0048
    --------------------------------------------
      LOOP:  cpu time    3.7218: real time    3.7434

 eigenvalue-minimisations  :   510
 total energy-change (2. order) :-0.1150958E+03  (-0.9184057E+02)
 number of electron     138.0000000 magnetization 
 augmentation part      138.0000000 magnetization 

 DIPCOR: dipole corrections for dipol
 direction  3 min pos   356,
 dipolmoment           0.000000      0.000000     -0.000385 electrons x Angstroem
 Tr[quadrupol]     -1928.099166

 energy correction for charged system         0.000000 eV
 dipol+quadrupol energy correction           -0.000000 eV
 added-field ion interaction          0.003876 eV  (added to PSCEN)


 Free energy of the ion-electron system (eV)
  ---------------------------------------------------
  alpha Z        PSCENC =        63.16493893
  Ewald energy   TEWEN  =     13042.90576619
  -Hartree energ DENC   =    -16269.56889975
  -exchange      EXHF   =         0.00000000
  -V(xc)+E(xc)   XCENC  =     -2050.92190685
  PAW double counting   =      5135.15659847    -2719.01140655
  entropy T*S    EENTRO =         0.00000000
  eigenvalues    EBANDS =     -1005.22188345
  atomic energy  EATOM  =      3827.98814510
  Solvation  Ediel_sol  =         0.00000000
  ---------------------------------------------------
  free energy    TOTEN  =        24.49135209 eV

  energy without entropy =       24.49135209  energy(sigma->0) =       24.49135209


--------------------------------------------------------------------------------------------------------




--------------------------------------- Iteration      1(   6)  ---------------------------------------


    EDDIAG:  cpu time    1.5738: real time    1.5963
  RMM-DIIS:  cpu time    1.3849: real time    1.3851
    ORTHCH:  cpu time    0.4775: real time    0.4776
 BZINTS: Fermi energy: -1.366635;138.000000 electrons
         Band energy:***********;  BLOECHL correction: -0.039805
       DOS:  cpu time    0.0034: real time    0.0034
    --------------------------------------------
      LOOP:  cpu time    3.4396: real time    3.4623

 eigenvalue-minimisations  :   510
 total energy-change (2. order) :-0.6589184E+02  (-0.4965137E+02)
 number of electron     138.0000000 magnetization 
 augmentation part      138.0000000 magnetization 

 DIPCOR: dipole corrections for dipol
 direction  3 min pos   356,
 dipolmoment           0.000000      0.000000     -0.000385 electrons x Angstroem
 Tr[quadrupol]     -1928.099166

 energy correction for charged system         0.000000 eV
 dipol+quadrupol energy correction           -0.000000 eV
 added-field ion interaction          0.003876 eV  (added to PSCEN)


 Free energy of the ion-electron system (eV)
  ---------------------------------------------------
  alpha Z        PSCENC =        63.16493893
  Ewald energy   TEWEN  =     13042.90576619
  -Hartree energ DENC   =    -16269.56889975
  -exchange      EXHF   =         0.00000000
  -V(xc)+E(xc)   XCENC  =     -2050.92190685
  PAW double counting   =      5135.15659847    -2719.01140655
  entropy T*S    EENTRO =         0.00000000
  eigenvalues    EBANDS =     -1071.11372710
  atomic energy  EATOM  =      3827.98814510
  Solvation  Ediel_sol  =         0.00000000
  ---------------------------------------------------
  free energy    TOTEN  =       -41.40049157 eV

  energy without entropy =      -41.40049157  energy(sigma->0) =      -41.40049157


--------------------------------------------------------------------------------------------------------




--------------------------------------- Iteration      1(   7)  ---------------------------------------


    EDDIAG:  cpu time    1.9164: real time    1.9377
  RMM-DIIS:  cpu time    2.1087: real time    2.1090
    ORTHCH:  cpu time    1.0731: real time    1.0733
 BZINTS: Fermi energy: -1.435420;138.000000 electrons
         Band energy:***********;  BLOECHL correction: -0.053515
       DOS:  cpu time    0.0064: real time    0.0064
    --------------------------------------------
      LOOP:  cpu time    5.1046: real time    5.1263

 eigenvalue-minimisations  :   510
 total energy-change (2. order) :-0.2849589E+02  (-0.2137496E+02)
 number of electron     138.0000000 magnetization 
 augmentation part      138.0000000 magnetization 

 DIPCOR: dipole corrections for dipol
 direction  3 min pos   356,
 dipolmoment           0.000000      0.000000     -0.000385 electrons x Angstroem
 Tr[quadrupol]     -1928.099166

 energy correction for charged system         0.000000 eV
 dipol+quadrupol energy correction           -0.000000 eV
 added-field ion interaction          0.003876 eV  (added to PSCEN)


 Free energy of the ion-electron system (eV)
  ---------------------------------------------------
  alpha Z        PSCENC =        63.16493893
  Ewald energy   TEWEN  =     13042.90576619
  -Hartree energ DENC   =    -16269.56889975
  -exchange      EXHF   =         0.00000000
  -V(xc)+E(xc)   XCENC  =     -2050.92190685
  PAW double counting   =      5135.15659847    -2719.01140655
  entropy T*S    EENTRO =         0.00000000
  eigenvalues    EBANDS =     -1099.60961773
  atomic energy  EATOM  =      3827.98814510
  Solvation  Ediel_sol  =         0.00000000
  ---------------------------------------------------
  free energy    TOTEN  =       -69.89638219 eV

  energy without entropy =      -69.89638219  energy(sigma->0) =      -69.89638219


--------------------------------------------------------------------------------------------------------




--------------------------------------- Iteration      1(   8)  ---------------------------------------


    EDDIAG:  cpu time    2.7022: real time    2.7248
  RMM-DIIS:  cpu time    2.2002: real time    2.2004
    ORTHCH:  cpu time    1.0068: real time    1.0070
 BZINTS: Fermi energy: -1.472633;138.000000 electrons
         Band energy:***********;  BLOECHL correction: -0.063075
       DOS:  cpu time    0.0062: real time    0.0062
    --------------------------------------------
      LOOP:  cpu time    5.9153: real time    5.9384

 eigenvalue-minimisations  :   510
 total energy-change (2. order) :-0.8284196E+01  (-0.6611591E+01)
 number of electron     138.0000000 magnetization 
 augmentation part      138.0000000 magnetization 

 DIPCOR: dipole corrections for dipol
 direction  3 min pos   356,
 dipolmoment           0.000000      0.000000     -0.000385 electrons x Angstroem
 Tr[quadrupol]     -1928.099166

 energy correction for charged system         0.000000 eV
 dipol+quadrupol energy correction           -0.000000 eV
 added-field ion interaction          0.003876 eV  (added to PSCEN)


 Free energy of the ion-electron system (eV)
  ---------------------------------------------------
  alpha Z        PSCENC =        63.16493893
  Ewald energy   TEWEN  =     13042.90576619
  -Hartree energ DENC   =    -16269.56889975
  -exchange      EXHF   =         0.00000000
  -V(xc)+E(xc)   XCENC  =     -2050.92190685
  PAW double counting   =      5135.15659847    -2719.01140655
  entropy T*S    EENTRO =         0.00000000
  eigenvalues    EBANDS =     -1107.89381387
  atomic energy  EATOM  =      3827.98814510
  Solvation  Ediel_sol  =         0.00000000
  ---------------------------------------------------
  free energy    TOTEN  =       -78.18057833 eV

  energy without entropy =      -78.18057833  energy(sigma->0) =      -78.18057833


--------------------------------------------------------------------------------------------------------




--------------------------------------- Iteration      1(   9)  ---------------------------------------


    EDDIAG:  cpu time    2.7289: real time    2.7534
  RMM-DIIS:  cpu time    5.0909: real time    5.0915
    ORTHCH:  cpu time    1.0040: real time    1.0041
 BZINTS: Fermi energy: -1.506775;138.000000 electrons
         Band energy:***********;  BLOECHL correction: -0.077336
       DOS:  cpu time    0.0055: real time    0.0055
    --------------------------------------------
      LOOP:  cpu time    8.8293: real time    8.8546

 eigenvalue-minimisations  :  1476
 total energy-change (2. order) :-0.2421051E+01  (-0.2301230E+01)
 number of electron     138.0000000 magnetization 
 augmentation part      138.0000000 magnetization 

 DIPCOR: dipole corrections for dipol
 direction  3 min pos   356,
 dipolmoment           0.000000      0.000000     -0.000385 electrons x Angstroem
 Tr[quadrupol]     -1928.099166

 energy correction for charged system         0.000000 eV
 dipol+quadrupol energy correction           -0.000000 eV
 added-field ion interaction          0.003876 eV  (added to PSCEN)


 Free energy of the ion-electron system (eV)
  ---------------------------------------------------
  alpha Z        PSCENC =        63.16493893
  Ewald energy   TEWEN  =     13042.90576619
  -Hartree energ DENC   =    -16269.56889975
  -exchange      EXHF   =         0.00000000
  -V(xc)+E(xc)   XCENC  =     -2050.92190685
  PAW double counting   =      5135.15659847    -2719.01140655
  entropy T*S    EENTRO =         0.00000000
  eigenvalues    EBANDS =     -1110.31486452
  atomic energy  EATOM  =      3827.98814510
  Solvation  Ediel_sol  =         0.00000000
  ---------------------------------------------------
  free energy    TOTEN  =       -80.60162898 eV

  energy without entropy =      -80.60162898  energy(sigma->0) =      -80.60162898


--------------------------------------------------------------------------------------------------------




--------------------------------------- Iteration      1(  10)  ---------------------------------------


    EDDIAG:  cpu time    2.6653: real time    2.6883
  RMM-DIIS:  cpu time    5.9042: real time    5.9049
    ORTHCH:  cpu time    1.0156: real time    1.0158
 BZINTS: Fermi energy: -1.510133;138.000000 electrons
         Band energy:***********;  BLOECHL correction: -0.075458
       DOS:  cpu time    0.0039: real time    0.0039
    --------------------------------------------
      LOOP:  cpu time    9.5890: real time    9.6128

 eigenvalue-minimisations  :  1740
 total energy-change (2. order) :-0.3148177E+00  (-0.3243000E+00)
 number of electron     138.0000000 magnetization 
 augmentation part      138.0000000 magnetization 

 DIPCOR: dipole corrections for dipol
 direction  3 min pos   356,
 dipolmoment           0.000000      0.000000     -0.000385 electrons x Angstroem
 Tr[quadrupol]     -1928.099166

 energy correction for charged system         0.000000 eV
 dipol+quadrupol energy correction           -0.000000 eV
 added-field ion interaction          0.003876 eV  (added to PSCEN)


 Free energy of the ion-electron system (eV)
  ---------------------------------------------------
  alpha Z        PSCENC =        63.16493893
  Ewald energy   TEWEN  =     13042.90576619
  -Hartree energ DENC   =    -16269.56889975
  -exchange      EXHF   =         0.00000000
  -V(xc)+E(xc)   XCENC  =     -2050.92190685
  PAW double counting   =      5135.15659847    -2719.01140655
  entropy T*S    EENTRO =         0.00000000
  eigenvalues    EBANDS =     -1110.62968223
  atomic energy  EATOM  =      3827.98814510
  Solvation  Ediel_sol  =         0.00000000
  ---------------------------------------------------
  free energy    TOTEN  =       -80.91644669 eV

  energy without entropy =      -80.91644669  energy(sigma->0) =      -80.91644669


--------------------------------------------------------------------------------------------------------




--------------------------------------- Iteration      1(  11)  ---------------------------------------


    EDDIAG:  cpu time    2.7142: real time    2.7354
  RMM-DIIS:  cpu time    5.9649: real time    5.9657
    ORTHCH:  cpu time    0.9936: real time    0.9937
 BZINTS: Fermi energy: -1.510561;138.000000 electrons
         Band energy:***********;  BLOECHL correction: -0.068629
       DOS:  cpu time    0.0098: real time    0.0098
    --------------------------------------------
      LOOP:  cpu time    9.6825: real time    9.7047

 eigenvalue-minimisations  :  1714
 total energy-change (2. order) : 0.8285858E-02  (-0.1648737E-01)
 number of electron     138.0000000 magnetization 
 augmentation part      138.0000000 magnetization 

 DIPCOR: dipole corrections for dipol
 direction  3 min pos   356,
 dipolmoment           0.000000      0.000000     -0.000385 electrons x Angstroem
 Tr[quadrupol]     -1928.099166

 energy correction for charged system         0.000000 eV
 dipol+quadrupol energy correction           -0.000000 eV
 added-field ion interaction          0.003876 eV  (added to PSCEN)


 Free energy of the ion-electron system (eV)
  ---------------------------------------------------
  alpha Z        PSCENC =        63.16493893
  Ewald energy   TEWEN  =     13042.90576619
  -Hartree energ DENC   =    -16269.56889975
  -exchange      EXHF   =         0.00000000
  -V(xc)+E(xc)   XCENC  =     -2050.92190685
  PAW double counting   =      5135.15659847    -2719.01140655
  entropy T*S    EENTRO =         0.00000000
  eigenvalues    EBANDS =     -1110.62139637
  atomic energy  EATOM  =      3827.98814510
  Solvation  Ediel_sol  =         0.00000000
  ---------------------------------------------------
  free energy    TOTEN  =       -80.90816083 eV

  energy without entropy =      -80.90816083  energy(sigma->0) =      -80.90816083


--------------------------------------------------------------------------------------------------------




--------------------------------------- Iteration      1(  12)  ---------------------------------------


    EDDIAG:  cpu time    2.5828: real time    2.6063
  RMM-DIIS:  cpu time    4.4878: real time    4.4884
    ORTHCH:  cpu time    0.3752: real time    0.3753
 BZINTS: Fermi energy: -1.510633;138.000000 electrons
         Band energy:***********;  BLOECHL correction: -0.068563
       DOS:  cpu time    0.0046: real time    0.0046
    CHARGE:  cpu time    0.2995: real time    0.2996
    MIXING:  cpu time    0.0037: real time    0.0037
    --------------------------------------------
      LOOP:  cpu time    7.7535: real time    7.7778

 eigenvalue-minimisations  :  1802
 total energy-change (2. order) :-0.2595666E-02  (-0.3452331E-02)
 number of electron     138.0000000 magnetization 
 augmentation part        5.2642323 magnetization 

 DIPCOR: dipole corrections for dipol
 direction  3 min pos   356,
 dipolmoment           0.000000      0.000000     -0.000385 electrons x Angstroem
 Tr[quadrupol]     -1928.099166

 energy correction for charged system         0.000000 eV
 dipol+quadrupol energy correction           -0.000000 eV
 added-field ion interaction          0.003876 eV  (added to PSCEN)


 Broyden mixing:
  rms(total) = 0.20083E+01    rms(broyden)= 0.20072E+01
  rms(prec ) = 0.21006E+01
  weight for this iteration     100.00

 Free energy of the ion-electron system (eV)
  ---------------------------------------------------
  alpha Z        PSCENC =        63.16493893
  Ewald energy   TEWEN  =     13042.90576619
  -Hartree energ DENC   =    -16269.56889975
  -exchange      EXHF   =         0.00000000
  -V(xc)+E(xc)   XCENC  =     -2050.92190685
  PAW double counting   =      5135.15659847    -2719.01140655
  entropy T*S    EENTRO =         0.00000000
  eigenvalues    EBANDS =     -1110.62399204
  atomic energy  EATOM  =      3827.98814510
  Solvation  Ediel_sol  =         0.00000000
  ---------------------------------------------------
  free energy    TOTEN  =       -80.91075650 eV

  energy without entropy =      -80.91075650  energy(sigma->0) =      -80.91075650


--------------------------------------------------------------------------------------------------------




--------------------------------------- Iteration      1(  13)  ---------------------------------------


    POTLOK:  cpu time    7.3267: real time    7.3521
    SETDIJ:  cpu time    0.1372: real time    0.1373
    EDDIAG:  cpu time    1.5573: real time    1.5581
  RMM-DIIS:  cpu time    3.6643: real time    3.6648
    ORTHCH:  cpu time    0.5113: real time    0.5114
 BZINTS: Fermi energy: -1.167204;138.000000 electrons
         Band energy:-924.445457;  BLOECHL correction: -0.073496
       DOS:  cpu time    0.0059: real time    0.0059
    CHARGE:  cpu time    0.3352: real time    0.3353
    MIXING:  cpu time    0.0049: real time    0.0049
    --------------------------------------------
      LOOP:  cpu time   13.5429: real time   13.5698

 eigenvalue-minimisations  :  1431
 total energy-change (2. order) : 0.9908224E+01  (-0.5995358E+01)
 number of electron     138.0000000 magnetization 
 augmentation part        4.4885737 magnetization 

 DIPCOR: dipole corrections for dipol
 direction  3 min pos   360,
 dipolmoment           0.000000      0.000000      0.561051 electrons x Angstroem
 Tr[quadrupol]     -1939.201993

 energy correction for charged system         0.000000 eV
 dipol+quadrupol energy correction           -0.011039 eV
 added-field ion interaction         -4.234994 eV  (added to PSCEN)


 Broyden mixing:
  rms(total) = 0.78110E+00    rms(broyden)= 0.78060E+00
  rms(prec ) = 0.10066E+01
  weight for this iteration     100.00

 eigenvalues of (default mixing * dielectric matrix)
  average eigenvalue GAMMA=   0.9548
  0.9548

 Free energy of the ion-electron system (eV)
  ---------------------------------------------------
  alpha Z        PSCENC =        58.91503005
  Ewald energy   TEWEN  =     13042.90576619
  -Hartree energ DENC   =    -16448.92519286
  -exchange      EXHF   =         0.00000000
  -V(xc)+E(xc)   XCENC  =     -2041.00338416
  PAW double counting   =      5557.14640305    -3143.58384286
  entropy T*S    EENTRO =         0.00000000
  eigenvalues    EBANDS =      -924.44545703
  atomic energy  EATOM  =      3827.98814510
  Solvation  Ediel_sol  =         0.00000000
  ---------------------------------------------------
  free energy    TOTEN  =       -71.00253252 eV

  energy without entropy =      -71.00253252  energy(sigma->0) =      -71.00253252


--------------------------------------------------------------------------------------------------------




--------------------------------------- Iteration      1(  14)  ---------------------------------------


    POTLOK:  cpu time    7.6745: real time    7.6984
    SETDIJ:  cpu time    0.1365: real time    0.1365
    EDDIAG:  cpu time    2.6358: real time    2.6364
  RMM-DIIS:  cpu time    5.6066: real time    5.6073
    ORTHCH:  cpu time    1.0003: real time    1.0004
 BZINTS: Fermi energy: -0.891612;138.000000 electrons
         Band energy:***********;  BLOECHL correction: -0.017980
       DOS:  cpu time    0.0042: real time    0.0042
    CHARGE:  cpu time    0.5049: real time    0.5050
    MIXING:  cpu time    0.0041: real time    0.0041
    --------------------------------------------
      LOOP:  cpu time   17.5669: real time   17.5923

 eigenvalue-minimisations  :  1621
 total energy-change (2. order) :-0.2518458E+02  (-0.1332287E+01)
 number of electron     138.0000000 magnetization 
 augmentation part        4.4599189 magnetization 

 DIPCOR: dipole corrections for dipol
 direction  3 min pos   374,
 dipolmoment           0.000000      0.000000     -2.004226 electrons x Angstroem
 Tr[quadrupol]     -1925.193629

 energy correction for charged system         0.000000 eV
 dipol+quadrupol energy correction           -0.140868 eV
 added-field ion interaction         -2.592430 eV  (added to PSCEN)


 Broyden mixing:
  rms(total) = 0.10614E+01    rms(broyden)= 0.10614E+01
  rms(prec ) = 0.31292E+01
  weight for this iteration     100.00

 eigenvalues of (default mixing * dielectric matrix)
  average eigenvalue GAMMA=   0.7344
  0.9667  0.5021

 Free energy of the ion-electron system (eV)
  ---------------------------------------------------
  alpha Z        PSCENC =        60.42776480
  Ewald energy   TEWEN  =     13042.90576619
  -Hartree energ DENC   =    -16396.51858731
  -exchange      EXHF   =         0.00000000
  -V(xc)+E(xc)   XCENC  =     -2038.98269192
  PAW double counting   =      5715.32133180    -3301.79742301
  entropy T*S    EENTRO =         0.00000000
  eigenvalues    EBANDS =     -1005.53141700
  atomic energy  EATOM  =      3827.98814510
  Solvation  Ediel_sol  =         0.00000000
  ---------------------------------------------------
  free energy    TOTEN  =       -96.18711134 eV

  energy without entropy =      -96.18711134  energy(sigma->0) =      -96.18711134


--------------------------------------------------------------------------------------------------------




--------------------------------------- Iteration      1(  15)  ---------------------------------------


    POTLOK:  cpu time    9.6663: real time    9.6889
    SETDIJ:  cpu time    0.1364: real time    0.1365
    EDDIAG:  cpu time    2.7128: real time    2.7134
  RMM-DIIS:  cpu time    5.1908: real time    5.1914
    ORTHCH:  cpu time    1.0737: real time    1.0738
 BZINTS: Fermi energy: -1.243105;138.000000 electrons
         Band energy:-922.063157;  BLOECHL correction: -0.080623
       DOS:  cpu time    0.0063: real time    0.0063
    CHARGE:  cpu time    0.4931: real time    0.4932
    MIXING:  cpu time    0.0043: real time    0.0043
    --------------------------------------------
      LOOP:  cpu time   19.2837: real time   19.3077

 eigenvalue-minimisations  :  1454
 total energy-change (2. order) : 0.2650176E+02  (-0.3210318E+00)
 number of electron     138.0000000 magnetization 
 augmentation part        4.3897983 magnetization 

 DIPCOR: dipole corrections for dipol
 direction  3 min pos   384,
 dipolmoment           0.000000      0.000000      0.129781 electrons x Angstroem
 Tr[quadrupol]     -1937.001123

 energy correction for charged system         0.000000 eV
 dipol+quadrupol energy correction           -0.000591 eV
 added-field ion interaction          0.987514 eV  (added to PSCEN)


 Broyden mixing:
  rms(total) = 0.49292E+00    rms(broyden)= 0.49289E+00
  rms(prec ) = 0.55086E+00
  weight for this iteration     100.00

 eigenvalues of (default mixing * dielectric matrix)
  average eigenvalue GAMMA=   1.1083
  1.9779  1.1981  0.1489

 Free energy of the ion-electron system (eV)
  ---------------------------------------------------
  alpha Z        PSCENC =        64.14798633
  Ewald energy   TEWEN  =     13042.90576619
  -Hartree energ DENC   =    -16457.70090801
  -exchange      EXHF   =         0.00000000
  -V(xc)+E(xc)   XCENC  =     -2038.49419759
  PAW double counting   =      5754.40650420    -3340.87548988
  entropy T*S    EENTRO =         0.00000000
  eigenvalues    EBANDS =      -922.06315736
  atomic energy  EATOM  =      3827.98814510
  Solvation  Ediel_sol  =         0.00000000
  ---------------------------------------------------
  free energy    TOTEN  =       -69.68535101 eV

  energy without entropy =      -69.68535101  energy(sigma->0) =      -69.68535101


--------------------------------------------------------------------------------------------------------




--------------------------------------- Iteration      1(  16)  ---------------------------------------


    POTLOK:  cpu time    9.4934: real time    9.5114
    SETDIJ:  cpu time    0.1369: real time    0.1370
    EDDIAG:  cpu time    1.8101: real time    1.8105
  RMM-DIIS:  cpu time    3.6536: real time    3.6541
    ORTHCH:  cpu time    0.4774: real time    0.4774
 BZINTS: Fermi energy: -0.973751;138.000000 electrons
         Band energy:-902.966299;  BLOECHL correction: -0.083362
       DOS:  cpu time    0.0054: real time    0.0054
    CHARGE:  cpu time    0.3123: real time    0.3123
    MIXING:  cpu time    0.0053: real time    0.0053
    --------------------------------------------
      LOOP:  cpu time   15.8944: real time   15.9134

 eigenvalue-minimisations  :  1618
 total energy-change (2. order) : 0.1024226E-01  (-0.1374492E+00)
 number of electron     138.0000000 magnetization 
 augmentation part        4.4449474 magnetization 

 DIPCOR: dipole corrections for dipol
 direction  3 min pos   370,
 dipolmoment           0.000000      0.000000      0.153583 electrons x Angstroem
 Tr[quadrupol]     -1941.970279

 energy correction for charged system         0.000000 eV
 dipol+quadrupol energy correction           -0.000827 eV
 added-field ion interaction         -0.189330 eV  (added to PSCEN)


 Broyden mixing:
  rms(total) = 0.25358E+00    rms(broyden)= 0.25357E+00
  rms(prec ) = 0.39829E+00
  weight for this iteration     100.00

 eigenvalues of (default mixing * dielectric matrix)
  average eigenvalue GAMMA=   1.0474
  2.3909  0.1532  0.6152  1.0305

 Free energy of the ion-electron system (eV)
  ---------------------------------------------------
  alpha Z        PSCENC =        62.97090631
  Ewald energy   TEWEN  =     13042.90576619
  -Hartree energ DENC   =    -16476.99630478
  -exchange      EXHF   =         0.00000000
  -V(xc)+E(xc)   XCENC  =     -2037.27957323
  PAW double counting   =      5859.56159062    -3445.85933952
  entropy T*S    EENTRO =         0.00000000
  eigenvalues    EBANDS =      -902.96629944
  atomic energy  EATOM  =      3827.98814510
  Solvation  Ediel_sol  =         0.00000000
  ---------------------------------------------------
  free energy    TOTEN  =       -69.67510875 eV

  energy without entropy =      -69.67510875  energy(sigma->0) =      -69.67510875


--------------------------------------------------------------------------------------------------------




--------------------------------------- Iteration      1(  17)  ---------------------------------------


    POTLOK:  cpu time    7.3187: real time    7.3399
    SETDIJ:  cpu time    0.1348: real time    0.1348
    EDDIAG:  cpu time    1.4340: real time    1.4343
  RMM-DIIS:  cpu time    3.0943: real time    3.0947
    ORTHCH:  cpu time    0.5099: real time    0.5099
 BZINTS: Fermi energy: -0.950133;138.000000 electrons
         Band energy:-898.580605;  BLOECHL correction: -0.076913
       DOS:  cpu time    0.0036: real time    0.0036
    CHARGE:  cpu time    0.5063: real time    0.5064
    MIXING:  cpu time    0.0048: real time    0.0048
    --------------------------------------------
      LOOP:  cpu time   13.0064: real time   13.0285

 eigenvalue-minimisations  :  1339
 total energy-change (2. order) : 0.3284637E+00  (-0.4157481E-01)
 number of electron     138.0000000 magnetization 
 augmentation part        4.4606510 magnetization 

 DIPCOR: dipole corrections for dipol
 direction  3 min pos   380,
 dipolmoment           0.000000      0.000000     -0.177529 electrons x Angstroem
 Tr[quadrupol]     -1940.426308

 energy correction for charged system         0.000000 eV
[...]
  0.013  -0.001  -0.000   0.054   0.001   0.000  -0.003  -0.000  -0.000   0.000   0.011  -0.000   0.000
  0.002   0.000  -0.002   0.001   0.076   0.000  -0.000  -0.004  -0.003  -0.000   0.000   0.004   0.000
  0.000   0.000  -0.004   0.000   0.000   0.000  -0.000  -0.000  -0.000  -0.000   0.000   0.000   0.000
 -0.003   0.000   0.000  -0.003  -0.000  -0.000   0.000   0.000   0.000  -0.000  -0.001   0.000  -0.000
 -0.000  -0.000   0.000  -0.000  -0.004  -0.000   0.000   0.000   0.000   0.000   0.000  -0.000  -0.000
  0.001   0.000   0.000  -0.000  -0.003  -0.000   0.000   0.000   0.003   0.000   0.000  -0.000   0.000
  0.000   0.000   0.004   0.000  -0.000  -0.000  -0.000   0.000   0.000   0.002   0.000   0.000  -0.000
 -0.022   0.000  -0.000   0.011   0.000   0.000  -0.001   0.000   0.000   0.000   0.004  -0.000  -0.000
 -0.000   0.000  -0.000  -0.000   0.004   0.000   0.000  -0.000  -0.000   0.000  -0.000   0.002   0.000
 -0.001  -0.000  -0.003   0.000   0.000   0.000  -0.000  -0.000   0.000  -0.000  -0.000   0.000   0.003


------------------------ aborting loop because EDIFF is reached ----------------------------------------


    CHARGE:  cpu time    0.5660: real time    0.5660
    FORLOC:  cpu time    0.0416: real time    0.0416
    FORNL :  cpu time    1.3630: real time    1.3632
    STRESS:  cpu time    3.9661: real time    3.9666
    FORCOR:  cpu time    7.3564: real time    7.3573
    FORHAR:  cpu time    0.1482: real time    0.1482
    MIXING:  cpu time    0.0081: real time    0.0081
    OFIELD:  cpu time    0.0001: real time    0.0001

  FORCE on cell =-STRESS in cart. coord.  units (eV):
  Direction    XX          YY          ZZ          XY          YZ          ZX
  --------------------------------------------------------------------------------------
  Alpha Z    63.16106    63.16106    63.16106
  Ewald   14621.75978 14396.16869-15975.03259  -172.54076   148.03768    71.83982
  Hartree 15505.06759 15326.29311-14324.95346  -125.07647    37.53382    18.10216
  E(xc)    -445.75871  -445.74293  -444.88662    -0.15365     0.60483     0.26341
  Local  -31092.76469-30680.13957 29332.71867   297.45186  -146.23348   -70.72882
  n-local   119.66931   119.32990   111.55544    -0.37066     0.72562     0.50722
  augment    44.85968    44.26537    45.74910    -0.01521    -2.58468    -1.29126
  Kinetic  1175.10470  1168.50437  1192.34390     1.21453   -37.61603   -18.74888
  Fock        0.00000     0.00000     0.00000     0.00000     0.00000     0.00000
  -------------------------------------------------------------------------------------
  Total      -8.90128    -8.16001     0.65551     0.50965     0.46776    -0.05635
  in kB      -5.52778    -5.06745     0.40708     0.31649     0.29049    -0.03499
  external pressure =       -3.40 kB  Pullay stress =        0.00 kB


 VOLUME and BASIS-vectors are now :
 -----------------------------------------------------------------------------
  energy-cutoff  :      520.00
  volume of cell :     2579.96
      direct lattice vectors                 reciprocal lattice vectors
     9.555752754  0.000000000  0.000000000     0.104649003  0.060419130  0.000000000
    -4.777876377  8.275524637  0.000000000     0.000000000  0.120838260  0.000000000
     0.000000000  0.000000000 32.625095367     0.000000000  0.000000000  0.030651251

  length of vectors
     9.555752754  9.555752754 32.625095367     0.120838260  0.120838260  0.030651251


 FORCES acting on ions
    electron-ion (+dipol)            ewald-force                    non-local-force                 convergence-correction
 -----------------------------------------------------------------------------------------------
   0.899E-01 -.210E-01 0.122E+03   -.793E-02 -.140E-01 -.121E+03   -.571E-01 0.259E-01 -.787E+00   -.579E-05 -.117E-05 -.689E-03
   0.356E+00 0.735E-01 0.566E+02   -.229E+00 -.127E+00 -.567E+02   -.104E+00 0.468E-01 0.715E-01   0.122E-05 -.139E-04 -.443E-02
   -.155E+01 -.191E+01 0.654E+01   0.168E+01 0.188E+01 -.679E+01   -.117E+00 0.274E-01 0.248E+00   -.730E-05 -.233E-04 -.504E-03
   -.558E-01 -.988E-02 0.122E+03   -.141E-01 -.132E-02 -.122E+03   0.207E-01 -.595E-02 -.855E+00   0.208E-05 0.963E-05 -.695E-03
   0.243E+00 -.211E-01 0.569E+02   -.234E+00 0.338E-01 -.569E+02   -.743E-02 -.131E-01 0.467E-01   0.814E-05 0.156E-04 -.443E-02
   0.294E+00 -.469E+01 -.136E+02   -.285E+00 0.472E+01 0.133E+02   -.773E-02 -.245E-01 0.331E+00   0.295E-04 0.182E-04 -.116E-02
   0.277E-01 0.830E-01 0.122E+03   -.909E-02 -.263E-02 -.121E+03   0.414E-02 -.553E-01 -.912E+00   0.446E-05 -.825E-05 -.683E-03
   0.426E-01 0.310E+00 0.562E+02   -.602E-01 -.208E+00 -.564E+02   0.991E-02 -.859E-01 0.142E+00   0.107E-05 0.428E-05 -.443E-02
   -.612E+01 0.233E+01 -.197E+02   0.615E+01 -.209E+01 0.193E+02   -.227E-01 -.229E+00 0.474E+00   -.382E-04 -.523E-05 -.103E-02
   -.465E-01 -.507E-01 0.122E+03   0.574E-02 -.472E-02 -.122E+03   0.249E-01 0.279E-01 -.864E+00   0.476E-05 -.708E-05 -.682E-03
   -.208E+00 0.803E-01 0.567E+02   0.124E+00 -.114E+00 -.569E+02   0.738E-01 0.297E-01 0.132E+00   0.866E-05 -.112E-04 -.443E-02
   -.171E+01 0.320E+01 -.909E+01   0.161E+01 -.341E+01 0.864E+01   0.866E-01 0.189E+00 0.464E+00   -.903E-05 0.117E-04 -.120E-02
   -.563E-02 0.210E-01 0.122E+03   0.681E-02 0.463E-02 -.122E+03   -.326E-02 -.144E-01 -.875E+00   -.655E-05 0.676E-06 -.697E-03
   0.114E+00 0.148E-01 0.574E+02   -.840E-01 -.623E-01 -.575E+02   -.212E-01 0.246E-01 0.571E-01   0.771E-05 0.210E-04 -.441E-02
   0.517E+01 0.751E+01 -.102E+02   -.538E+01 -.831E+01 0.938E+01   0.210E+00 0.802E+00 0.783E+00   0.256E-04 0.101E-03 -.111E-02
   -.422E-01 -.251E-02 0.122E+03   0.145E-02 0.827E-02 -.122E+03   0.324E-01 -.717E-02 -.761E+00   -.967E-05 -.227E-06 -.689E-03
   0.134E+00 -.461E-01 0.570E+02   -.192E+00 0.875E-01 -.570E+02   0.403E-01 -.263E-01 0.694E-02   0.125E-04 0.691E-05 -.442E-02
   0.239E+02 -.111E+01 -.334E+01   -.242E+02 0.130E+01 0.340E+01   0.325E+00 -.191E+00 -.372E-01   0.114E-03 -.558E-04 -.464E-03
   -.410E-02 0.801E-01 0.122E+03   0.219E-02 -.824E-03 -.121E+03   -.222E-02 -.244E-01 -.906E+00   0.105E-05 -.574E-05 -.687E-03
   -.157E+00 -.706E-01 0.568E+02   0.115E+00 0.609E-01 -.569E+02   0.387E-01 0.916E-02 0.103E+00   -.985E-05 -.285E-04 -.443E-02
   0.303E+01 -.251E+01 -.131E+02   -.292E+01 0.263E+01 0.128E+02   -.110E+00 -.121E+00 0.360E+00   0.142E-04 -.548E-04 -.109E-02
   0.571E-01 -.515E-01 0.122E+03   0.736E-02 0.511E-02 -.121E+03   -.943E-02 0.112E-01 -.809E+00   0.443E-05 0.739E-05 -.686E-03
   -.348E+00 -.975E-01 0.567E+02   0.314E+00 0.108E+00 -.568E+02   0.273E-01 -.746E-02 0.461E-01   -.162E-04 0.105E-04 -.443E-02
   -.127E+02 0.661E+01 0.506E+01   0.129E+02 -.683E+01 -.554E+01   -.170E+00 0.226E+00 0.491E+00   -.641E-04 0.590E-04 -.642E-03
   -.653E-01 -.274E-01 0.122E+03   0.766E-02 0.571E-02 -.121E+03   0.375E-01 0.161E-01 -.768E+00   0.518E-05 0.442E-05 -.691E-03
   -.265E+00 -.259E+00 0.568E+02   0.271E+00 0.233E+00 -.568E+02   0.122E-01 0.249E-01 0.152E-01   -.138E-04 -.509E-05 -.442E-02
   -.862E+01 -.108E+02 0.185E+02   0.889E+01 0.110E+02 -.177E+02   -.264E+00 -.213E+00 -.848E+00   -.673E-04 -.644E-04 -.665E-03
   0.116E+00 0.133E+00 0.900E+02   -.774E-01 -.116E+00 -.899E+02   -.261E-01 -.396E-01 -.381E-01   -.360E-05 -.318E-05 -.339E-02
   0.890E+00 0.780E+00 0.243E+02   -.871E+00 -.649E+00 -.244E+02   -.159E-01 -.142E+00 0.119E+00   0.723E-05 0.106E-04 -.345E-02
   0.132E+00 -.789E-01 0.899E+02   -.663E-01 0.592E-01 -.898E+02   -.453E-01 0.317E-01 -.803E-02   0.331E-07 0.150E-04 -.339E-02
   0.656E+00 -.245E+00 0.225E+02   -.665E+00 0.234E+00 -.225E+02   0.127E-01 0.135E-01 0.556E-01   0.214E-04 0.126E-04 -.343E-02
   0.170E-01 0.632E-01 0.898E+02   -.635E-01 -.647E-01 -.898E+02   0.127E-01 0.288E-02 -.610E-01   0.676E-05 -.980E-05 -.338E-02
   -.462E-01 0.391E+00 0.237E+02   0.644E-01 -.442E+00 -.237E+02   -.399E-01 0.539E-01 0.158E-02   -.819E-06 -.843E-05 -.344E-02
   -.221E+00 0.387E-01 0.900E+02   0.164E+00 0.562E-03 -.899E+02   0.533E-01 -.275E-01 -.232E-01   0.131E-04 -.498E-05 -.339E-02
   -.709E+00 0.125E+01 0.251E+02   0.637E+00 -.118E+01 -.252E+02   0.747E-01 -.562E-01 0.122E+00   0.121E-05 0.211E-04 -.345E-02
   -.420E-01 -.140E+00 0.899E+02   0.657E-01 0.140E+00 -.898E+02   -.194E-01 0.138E-01 -.318E-01   -.549E-05 0.151E-04 -.337E-02
   0.140E+01 -.515E+00 0.267E+02   -.127E+01 0.405E+00 -.274E+02   -.111E+00 0.109E+00 0.667E+00   -.222E-05 0.111E-04 -.342E-02
   -.275E-01 -.354E-01 0.899E+02   0.338E-01 -.656E-02 -.898E+02   -.538E-02 0.265E-02 -.746E-02   -.233E-05 -.703E-05 -.338E-02
   0.771E+00 0.207E-01 0.237E+02   -.719E+00 -.307E-01 -.238E+02   -.488E-01 0.347E-03 0.938E-01   0.790E-05 -.289E-04 -.344E-02
   0.116E+00 0.428E-02 0.898E+02   -.909E-01 0.711E-02 -.897E+02   -.294E-01 -.628E-02 -.347E-01   -.949E-05 -.105E-05 -.339E-02
   -.183E+00 -.457E+00 0.243E+02   0.266E+00 0.401E+00 -.242E+02   -.863E-01 0.582E-01 -.204E-01   -.898E-05 0.372E-05 -.346E-02
   -.864E-02 0.356E-01 0.898E+02   -.174E-02 -.452E-02 -.897E+02   -.108E-01 -.274E-01 0.560E-01   0.545E-05 0.281E-06 -.339E-02
   -.233E+01 0.185E-01 0.236E+02   0.224E+01 0.431E-01 -.236E+02   0.800E-01 -.681E-01 0.370E-01   -.201E-04 -.277E-05 -.332E-02
   -.365E-01 0.405E-01 0.898E+02   0.306E-01 -.523E-01 -.898E+02   0.263E-01 -.125E-01 0.311E-01   -.425E-05 -.402E-05 -.339E-02
   -.769E+00 -.138E+01 0.238E+02   0.665E+00 0.131E+01 -.239E+02   0.108E+00 0.680E-01 0.124E+00   -.726E-05 -.216E-04 -.334E-02
   0.111E+02 0.474E+02 -.254E+03   -.198E+02 -.734E+02 0.233E+03   0.871E+01 0.259E+02 0.211E+02   -.185E-04 -.110E-03 0.370E-02
   -.153E+02 0.379E+02 -.428E+03   -.443E+01 -.501E+02 0.465E+03   0.197E+02 0.122E+02 -.370E+02   -.201E-03 0.130E-03 0.483E-02
   0.316E+02 -.681E+01 -.422E+03   -.375E+02 -.222E+02 0.455E+03   0.594E+01 0.290E+02 -.326E+02   0.866E-04 -.217E-03 0.492E-02
   -.182E+02 0.615E+02 -.256E+03   0.890E+00 -.841E+02 0.236E+03   0.173E+02 0.226E+02 0.202E+02   -.323E-03 0.215E-03 0.330E-02
   -.930E+01 -.737E+01 -.257E+03   -.735E+01 -.138E+02 0.246E+03   0.166E+02 0.212E+02 0.116E+02   -.331E-03 -.275E-03 0.288E-02
   0.100E+03 0.288E+02 -.288E+03   -.116E+03 -.541E+02 0.271E+03   0.158E+02 0.253E+02 0.170E+02   0.374E-03 -.331E-03 0.332E-02
   0.383E+02 -.385E+02 -.886E+02   -.433E+02 0.433E+02 0.919E+02   0.503E+01 -.481E+01 -.329E+01   0.122E-04 -.184E-04 0.711E-03
   -.526E+02 -.554E+01 -.854E+02   0.595E+02 0.625E+01 0.884E+02   -.690E+01 -.707E+00 -.303E+01   -.116E-04 0.263E-05 0.704E-03
   -.326E+02 -.636E+02 -.453E+02   0.360E+02 0.709E+02 0.437E+02   -.340E+01 -.722E+01 0.162E+01   -.213E-04 0.303E-04 0.735E-03
   -.204E+02 0.527E+02 0.147E+02   0.220E+02 -.573E+02 -.207E+02   -.158E+01 0.463E+01 0.601E+01   -.224E-04 0.132E-04 0.645E-03
   -.335E+02 -.814E+02 -.642E+02   0.370E+02 0.888E+02 0.643E+02   -.348E+01 -.740E+01 -.168E+00   0.278E-04 0.121E-04 0.789E-03
   0.309E+02 0.561E+01 0.284E+02   -.336E+02 -.655E+01 -.353E+02   0.274E+01 0.937E+00 0.695E+01   0.661E-05 -.197E-04 0.612E-03
   0.161E+02 -.351E+02 -.601E+02   -.188E+02 0.402E+02 0.605E+02   0.270E+01 -.510E+01 -.470E+00   -.592E-04 0.424E-04 0.552E-03
   -.632E+02 0.274E+01 -.113E+03   0.693E+02 -.319E+01 0.118E+03   -.619E+01 0.466E+00 -.534E+01   -.300E-04 0.230E-04 0.714E-03
   -.456E+02 -.535E+02 -.982E+02   0.498E+02 0.590E+02 0.102E+03   -.428E+01 -.551E+01 -.410E+01   -.462E-04 -.527E-04 0.613E-03
   0.511E+01 0.397E+01 0.124E+01   -.510E+01 -.394E+01 -.133E+01   -.651E-02 -.304E-01 0.904E-01   0.240E-04 0.191E-04 -.406E-03
   0.288E+02 -.587E+02 -.112E+03   -.312E+02 0.647E+02 0.117E+03   0.243E+01 -.605E+01 -.514E+01   0.323E-04 -.225E-04 0.728E-03
   -.377E+02 0.451E+01 -.618E+02   0.438E+02 -.532E+01 0.621E+02   -.604E+01 0.797E+00 -.303E+00   0.471E-04 -.447E-04 0.548E-03
 -----------------------------------------------------------------------------------------------
   -.652E+02 -.107E+03 0.104E+02   0.142E-13 0.551E-13 -.130E-11   0.651E+02 0.107E+03 -.104E+02   -.457E-03 -.620E-03 -.852E-01
 
 
 POSITION                                       TOTAL-FORCE (eV/Angst)
 -----------------------------------------------------------------------------------
      0.00000      0.00000      0.00000         0.024980     -0.008975      0.002770
      4.77573      8.25764      5.17163         0.022649     -0.006413      0.004330
      0.01724      0.00064     10.76374         0.018274     -0.006468     -0.001214
     -1.59263      2.75851      0.00000        -0.049161     -0.017083     -0.044239
      7.96294      2.75778      5.13423         0.001838     -0.000291      0.000335
      7.90579      2.73417     10.18217         0.001634      0.002230      0.012693
     -3.18525      5.51702      0.00000         0.022828      0.025158     -0.014659
      6.35908      5.50836      5.15921        -0.007546      0.015557     -0.006519
     -3.14437      5.53230     10.28136         0.009651      0.015750      0.011781
      3.18525      0.00000      0.00000        -0.015770     -0.027382     -0.022799
     -1.59805      8.26022      5.14233        -0.009717     -0.004055     -0.003907
     -1.60343      8.21809     10.14002        -0.013761     -0.016235      0.017966
      1.59263      2.75851      0.00000        -0.001983      0.011343     -0.037332
      1.59375      2.73894      5.12302         0.009094     -0.022783     -0.010531
      1.52817      2.63534     10.14635        -0.000431     -0.005089      0.008744
     -0.00000      5.51702      0.00000        -0.008267     -0.001337     -0.027040
     -0.00787      5.50763      5.16142        -0.017728      0.015142     -0.001142
     -0.11337      5.51546     10.81558        -0.014895     -0.003553      0.016290
      6.37050      0.00000      0.00000        -0.004017      0.054951     -0.043358
      1.59898      8.25603      5.14584        -0.003024     -0.000522     -0.003523
      6.36579      0.03568     10.22946         0.001031      0.005501      0.018746
      4.77788      2.75851      0.00000         0.055172     -0.035183     -0.025640
      4.76964      2.76425      5.17988        -0.006614      0.002622      0.002062
      4.80029      2.63289     10.63274         0.002617      0.001707      0.008842
      3.18525      5.51702      0.00000        -0.020027     -0.005477     -0.051907
      3.19897      5.50919      5.18056         0.018604     -0.000434     -0.006416
      3.21002      5.53542     10.55680         0.004170      0.001896      0.004200
      0.00000      1.83901      2.60418         0.012101     -0.021833      0.021728
     -0.02538      1.80859      7.68097         0.003211     -0.010883     -0.001939
     -1.59263      4.59751      2.60418         0.020977      0.012013      0.034797
     -1.56839      4.60484      7.72355         0.004069      0.002366      0.002099
     -3.18525      7.35602      2.60418        -0.033706      0.001480     -0.027258
     -3.21110      7.34036      7.69871        -0.021625      0.003444      0.013145
      3.18525      1.83901      2.60418        -0.003060      0.011840      0.043642
      3.19810      1.84005      7.70152         0.003197      0.018089     -0.005365
      1.59263      4.59751      2.60418         0.004368      0.013567      0.013182
      1.59863      4.58436      7.67451         0.013084     -0.000941     -0.000850
      0.00000      7.35602      2.60418         0.001030     -0.039232      0.043069
      0.02255      7.30302      7.70880         0.003408     -0.009582     -0.005120
      6.37050      1.83901      2.60418        -0.004298      0.005166     -0.007054
      6.35042      1.82075      7.66713        -0.003023      0.002182     -0.004197
      4.77788      4.59751      2.60418        -0.021061      0.003756      0.073813
      4.75164      4.54643      7.86552        -0.007959     -0.006381     -0.015357
      3.18525      7.35602      2.60418         0.020577     -0.024195      0.051984
      3.20917      7.31523      7.82667         0.003784      0.001600     -0.007813
      4.79241      8.23787     12.86950        -0.007227      0.001242      0.000127
      2.70067      0.06751     13.56274        -0.015312      0.024719      0.017087
      7.55517      1.78846     13.58205         0.002024      0.004001      0.015029
      4.26969      2.88197     12.67895        -0.004335      0.001955      0.005970
      3.12476      5.20003     12.55239        -0.016561     -0.000310     -0.006859
      0.55068      5.51448     12.78122         0.012256     -0.021793     -0.002527
      8.93853      0.59660     13.30229        -0.003206      0.001004     -0.009246
      0.91880      0.07580     13.27675        -0.001784      0.005042     -0.014398
      3.11617      0.93054     13.34349        -0.019599      0.024275     -0.001543
     -1.86537      7.77717     12.78029         0.003190      0.003357      0.014581
      7.96737      2.67643     13.57798         0.005780      0.001040     -0.009333
      7.20706      1.69130     12.65447        -0.003175     -0.000528     -0.004354
      3.80802      3.81545     12.76834        -0.004035      0.007671     -0.006426
      5.00836      2.84682     13.31956        -0.000306      0.012017      0.001663
      3.64383      5.86514     13.04581        -0.006881      0.016439     -0.008570
      1.52453      4.54445     10.40058        -0.002014     -0.000679     -0.009562
      0.28201      6.23158     13.38450         0.022417     -0.014387      0.002996
      1.58001      5.40857     12.83676         0.024090     -0.018099     -0.015675
 -----------------------------------------------------------------------------------
    total drift:                               -0.006994     -0.004005     -0.016522


--------------------------------------------------------------------------------------------------------



  FREE ENERGIE OF THE ION-ELECTRON SYSTEM (eV)
  ---------------------------------------------------
  free  energy   TOTEN  =       -69.31638167 eV

  energy  without entropy=      -69.31638167  energy(sigma->0) =      -69.31638167
 


--------------------------------------------------------------------------------------------------------


    POTLOK:  cpu time    8.6926: real time    8.6945


--------------------------------------------------------------------------------------------------------


 stress matrix after NEB project (eV)
     -8.90128      0.50964     -0.05635
      0.50965     -8.16001      0.46776
     -0.05634      0.46776      0.65551
  FORCES: max atom, RMS     0.033965    0.015104
  FORCE total and by dimension    0.119888    0.024719
  Stress total and by dimension   12.133086    8.901284
     LOOP+:  cpu time  429.6460: real time  431.0267
 vacuum level on the upper side and lower side of the slab         2.527         3.063
    4ORBIT:  cpu time    0.0000: real time    0.0000
 BZINTS: Fermi energy: -0.790513;138.000000 electrons
         Band energy:-877.155895;  BLOECHL correction: -0.079065

 total amount of memory used by VASP MPI-rank0    62209. kBytes
=======================================================================

   base      :      30000. kBytes
   nonlr-proj:       6306. kBytes
   fftplans  :       6459. kBytes
   grid      :      11407. kBytes
   one-center:         24. kBytes
   wavefun   :       8013. kBytes
 
  
  
 General timing and accounting informations for this job:
 ========================================================
  
                  Total CPU time used (sec):      486.423
                            User time (sec):      477.989
                          System time (sec):        8.433
                         Elapsed time (sec):      496.309
  
                   Maximum memory used (kb):      270784.
                   Average memory used (kb):           0.
  
                          Minor page faults:       217633
                          Major page faults:            0
                 Voluntary context switches:        48016
