<?xml version="1.0" encoding="ISO-8859-1"?>
<modeling>
 <generator>
  <i name="program" type="string">vasp </i>
  <i name="version" type="string">5.4.4.18Apr17-6-g9f103f2a35  </i>
  <i name="subversion" type="string">(build Jun 08 2018 12:06:12) complex            parallel </i>
  <i name="platform" type="string">LinuxIFC </i>
  <i name="date" type="string">2019 06 06 </i>
  <i name="time" type="string">07:22:22 </i>
 </generator>
 <incar>
  <i type="string" name="SYSTEM"> Mg_slab_in_a_box</i>
  <i type="string" name="PREC">accurate</i>
  <i type="string" name="ALGO"> V</i>
  <i type="int" name="NELM">   300</i>
  <i type="int" name="NELMIN">     6</i>
  <i name="EDIFF">      0.00000500</i>
  <i name="ENCUT">    520.00000000</i>
  <i type="string" name="LREAL"> AUTO</i>
  <i type="logical" name="LPLANE"> T  </i>
  <i type="int" name="ISMEAR">    -5</i>
  <i type="logical" name="LWAVE"> F  </i>
  <i type="logical" name="LCHARG"> T  </i>
  <i type="logical" name="LVTOT"> T  </i>
  <i type="logical" name="LVHAR"> T  </i>
  <i type="logical" name="LSCALU"> F  </i>
  <i type="logical" name="LASPH"> T  </i>
  <i type="logical" name="LAECHG"> T  </i>
  <v type="int" name="KPOINT_BSE">    -1     0     0     0</v>
  <i type="int" name="NELM">   300</i>
  <i type="string" name="GGA"> BO</i>
  <i name="PARAM1">      0.18333333</i>
  <i name="PARAM2">      0.22000000</i>
  <i type="logical" name="LUSE_VDW"> T  </i>
  <i name="AGGAC">      0.00000000</i>
  <i type="logical" name="LDIPOL"> T  </i>
  <i type="int" name="IDIPOL">     3</i>
  <i type="logical" name="LASPH"> T  </i>
 </incar>
 <structure name="primitive_cell" >
  <crystal>
   <varray name="basis" >
    <v>       9.55575275       0.00000000       0.00000000 </v>
    <v>      -4.77787638       8.27552464       0.00000000 </v>
    <v>       0.00000000       0.00000000      32.62509537 </v>
   </varray>
   <i name="volume">   2579.95558872 </i>
   <varray name="rec_basis" >
    <v>       0.10464900       0.06041913       0.00000000 </v>
    <v>       0.00000000       0.12083826       0.00000000 </v>
    <v>       0.00000000       0.00000000       0.03065125 </v>
   </varray>
  </crystal>
  <varray name="positions" >
   <v>       0.00000000       0.00000000       0.00000000 </v>
   <v>       0.00000002      -0.33333328       0.00000000 </v>
   <v>      -0.33333330      -0.33333328       0.00000000 </v>
   <v>      -0.33333332       0.00000000       0.00000000 </v>
   <v>       0.33333334       0.00000000       0.00000000 </v>
   <v>       0.00000001       0.33333336       0.00000000 </v>
   <v>       0.33333335       0.33333336       0.00000000 </v>
   <v>      -0.22222216      -0.11111106       0.07982145 </v>
   <v>       0.11111116      -0.11111106       0.07982145 </v>
   <v>       0.11111113       0.22222222       0.07982145 </v>
   <v>      -0.22222219      -0.44444439       0.07982145 </v>
   <v>      -0.22222221       0.22222222       0.07982145 </v>
   <v>       0.44444450       0.22222222       0.07982145 </v>
   <v>      -0.00130484      -0.00216139       0.15851697 </v>
   <v>       0.33333336      -0.33333328       0.00000000 </v>
   <v>      -0.33333332       0.33333336       0.00000000 </v>
   <v>       0.44444450      -0.44444439       0.07982145 </v>
   <v>       0.44444451      -0.11111106       0.07982145 </v>
   <v>       0.11111114      -0.44444439       0.07982145 </v>
   <v>       0.33226913       0.33096931       0.15702704 </v>
   <v>      -0.00006375       0.33324577       0.15737067 </v>
   <v>       0.33184124      -0.00184925       0.15761882 </v>
   <v>      -0.33384637      -0.00235624       0.15772639 </v>
   <v>      -0.00171849      -0.33437928       0.15813614 </v>
   <v>      -0.33237015      -0.33427887       0.15879064 </v>
   <v>       0.33194274      -0.33446809       0.15820411 </v>
   <v>      -0.33384880       0.33402692       0.15876984 </v>
   <v>       0.10661732       0.21854733       0.23543133 </v>
   <v>       0.10745913      -0.11300399       0.23597518 </v>
   <v>      -0.22218378      -0.11604022       0.23989726 </v>
   <v>      -0.22542688       0.22001584       0.23500709 </v>
   <v>       0.44585178       0.22234812       0.23606118 </v>
   <v>      -0.22805454      -0.45061757       0.24108813 </v>
   <v>       0.44427797      -0.44603333       0.23523347 </v>
   <v>       0.44360141      -0.11751603       0.23628439 </v>
   <v>       0.11409063      -0.44355868       0.23673645 </v>
   <v>       0.31914662       0.31844942       0.31099830 </v>
   <v>       0.32873286      -0.00694000       0.31080444 </v>
   <v>      -0.00747144       0.33039194       0.31209637 </v>
   <v>      -0.33167097       0.00431164       0.31354584 </v>
   <v>       0.00184344       0.00007760       0.32992195 </v>
   <v>       0.00520194      -0.33148628       0.31513669 </v>
   <v>      -0.32962913      -0.33110935       0.32357907 </v>
   <v>       0.43411218      -0.45085695       0.31879082 </v>
   <v>      -0.33857709       0.31815412       0.32590683 </v>
   <v>       0.32137552      -0.33352109       0.33151097 </v>
   <v>      -0.00075469      -0.00455024       0.39446639 </v>
   <v>      -0.14360124       0.20437355       0.38787546 </v>
   <v>      -0.35881535      -0.37163754       0.38474633 </v>
   <v>       0.27468052      -0.06022058       0.39173201 </v>
   <v>       0.10073095       0.00915952       0.40694905 </v>
   <v>      -0.26430967      -0.29126671       0.39987030 </v>
   <v>      -0.02854627       0.07209164       0.40773189 </v>
   <v>       0.49212684      -0.34643828       0.39346270 </v>
   <v>      -0.37096869       0.46105191       0.39136568 </v>
   <v>      -0.37905497       0.34825170       0.38862578 </v>
   <v>       0.38232645       0.11244520       0.40899480 </v>
   <v>       0.39080754      -0.33364022       0.39176053 </v>
   <v>       0.28670169       0.00815777       0.41571483 </v>
   <v>      -0.10130174       0.21611484       0.41630683 </v>
   <v>      -0.00451543       0.32341535       0.41618196 </v>
   <v>       0.40601820      -0.24698686       0.41025175 </v>
   <v>      -0.30387699       0.34400536       0.40826127 </v>
  </varray>
 </structure>
 <varray name="primitive_index" >
  <v type="int" >        1 </v>
  <v type="int" >        7 </v>
  <v type="int" >       25 </v>
  <v type="int" >       19 </v>
  <v type="int" >       10 </v>
  <v type="int" >        4 </v>
  <v type="int" >       13 </v>
  <v type="int" >       44 </v>
  <v type="int" >       32 </v>
  <v type="int" >       28 </v>
  <v type="int" >       42 </v>
  <v type="int" >       40 </v>
  <v type="int" >       34 </v>
  <v type="int" >        2 </v>
  <v type="int" >       16 </v>
  <v type="int" >       22 </v>
  <v type="int" >       36 </v>
  <v type="int" >       38 </v>
  <v type="int" >       30 </v>
  <v type="int" >       14 </v>
  <v type="int" >        5 </v>
  <v type="int" >       11 </v>
  <v type="int" >       20 </v>
  <v type="int" >        8 </v>
  <v type="int" >       26 </v>
  <v type="int" >       17 </v>
  <v type="int" >       23 </v>
  <v type="int" >       29 </v>
  <v type="int" >       33 </v>
  <v type="int" >       45 </v>
  <v type="int" >       41 </v>
  <v type="int" >       35 </v>
  <v type="int" >       43 </v>
  <v type="int" >       37 </v>
  <v type="int" >       39 </v>
  <v type="int" >       31 </v>
  <v type="int" >       15 </v>
  <v type="int" >       12 </v>
  <v type="int" >        6 </v>
  <v type="int" >       21 </v>
  <v type="int" >        3 </v>
  <v type="int" >        9 </v>
  <v type="int" >       27 </v>
  <v type="int" >       61 </v>
  <v type="int" >       24 </v>
  <v type="int" >       18 </v>
  <v type="int" >       46 </v>
  <v type="int" >       57 </v>
  <v type="int" >       50 </v>
  <v type="int" >       55 </v>
  <v type="int" >       53 </v>
  <v type="int" >       60 </v>
  <v type="int" >       52 </v>
  <v type="int" >       63 </v>
  <v type="int" >       58 </v>
  <v type="int" >       49 </v>
  <v type="int" >       54 </v>
  <v type="int" >       51 </v>
  <v type="int" >       47 </v>
  <v type="int" >       48 </v>
  <v type="int" >       56 </v>
  <v type="int" >       62 </v>
  <v type="int" >       59 </v>
 </varray>
 <kpoints>
  <generation param="Gamma">
   <v type="int" name="divisions">       3        3        1 </v>
   <v name="usershift">      0.00000000       0.00000000       0.00000000 </v>
   <v name="genvec1">      0.33333333       0.00000000       0.00000000 </v>
   <v name="genvec2">      0.00000000       0.33333333       0.00000000 </v>
   <v name="genvec3">      0.00000000       0.00000000       1.00000000 </v>
   <v name="shift">      0.00000000       0.00000000       0.00000000 </v>
  </generation>
  <varray name="kpointlist" >
   <v>       0.00000000       0.00000000       0.00000000 </v>
   <v>       0.33333333      -0.00000000       0.00000000 </v>
   <v>       0.00000000       0.33333333       0.00000000 </v>
   <v>       0.33333333       0.33333333       0.00000000 </v>
   <v>      -0.33333333       0.33333333       0.00000000 </v>
  </varray>
  <varray name="weights" >
   <v>       0.11111111 </v>
   <v>       0.22222222 </v>
   <v>       0.22222222 </v>
   <v>       0.22222222 </v>
   <v>       0.22222222 </v>
  </varray>
  <varray name="tetrahedronlist"  type="int" >
   <v type="int" >        2        2        3        3        4 </v>
   <v type="int" >        2        1        2        3        3 </v>
   <v type="int" >        2        1        1        2        3 </v>
   <v type="int" >        2        2        3        4        4 </v>
   <v type="int" >        2        2        2        3        4 </v>
   <v type="int" >        2        1        2        2        3 </v>
   <v type="int" >        2        2        4        4        5 </v>
   <v type="int" >        2        2        2        4        4 </v>
   <v type="int" >        4        2        2        2        4 </v>
   <v type="int" >        2        2        4        5        5 </v>
   <v type="int" >        2        2        2        4        5 </v>
   <v type="int" >        2        1        3        5        5 </v>
   <v type="int" >        2        1        2        5        5 </v>
   <v type="int" >        2        1        2        2        5 </v>
   <v type="int" >        2        1        3        3        5 </v>
   <v type="int" >        2        1        1        3        5 </v>
   <v type="int" >        2        1        1        2        5 </v>
   <v type="int" >        2        3        3        4        5 </v>
   <v type="int" >        4        3        3        3        4 </v>
   <v type="int" >        2        3        4        5        5 </v>
   <v type="int" >        2        3        4        4        5 </v>
   <v type="int" >        2        3        3        4        4 </v>
   <v type="int" >        4        4        5        5        5 </v>
   <v type="int" >        2        4        4        5        5 </v>
  </varray>
  <i name="volumeweight">      0.01851852 </i>
 </kpoints>
 <parameters>
  <separator name="general" >
   <i type="string" name="SYSTEM">Mg_slab_in_a_box</i>
   <i type="logical" name="LCOMPAT"> F  </i>
  </separator>
  <separator name="electronic" >
   <i type="string" name="PREC">accura</i>
   <i name="ENMAX">    520.00000000</i>
   <i name="ENAUG">    605.39200000</i>
   <i name="EDIFF">      0.00000500</i>
   <i type="int" name="IALGO">    48</i>
   <i type="int" name="IWAVPR">    10</i>
   <i type="int" name="NBANDS">   102</i>
   <i name="NELECT">    138.00000000</i>
   <i type="int" name="TURBO">     0</i>
   <i type="int" name="IRESTART">     0</i>
   <i type="int" name="NREBOOT">     0</i>
   <i type="int" name="NMIN">     0</i>
   <i name="EREF">      0.00000000</i>
   <separator name="electronic smearing" >
    <i type="int" name="ISMEAR">    -5</i>
    <i name="SIGMA">      0.20000000</i>
    <i name="KSPACING">      0.50000000</i>
    <i type="logical" name="KGAMMA"> T  </i>
   </separator>
   <separator name="electronic projectors" >
    <i type="logical" name="LREAL"> T  </i>
    <v name="ROPT">     -0.00025000     -0.00025000     -0.00025000</v>
    <i type="int" name="LMAXPAW">  -100</i>
    <i type="int" name="LMAXMIX">     2</i>
    <i type="logical" name="NLSPLINE"> F  </i>
   </separator>
   <separator name="electronic startup" >
    <i type="int" name="ISTART">     0</i>
    <i type="int" name="ICHARG">     2</i>
    <i type="int" name="INIWAV">     1</i>
   </separator>
   <separator name="electronic spin" >
    <i type="int" name="ISPIN">     1</i>
    <i type="logical" name="LNONCOLLINEAR"> F  </i>
    <v name="MAGMOM">      1.00000000      1.00000000      1.00000000      1.00000000      1.00000000      1.00000000      1.00000000      1.00000000      1.00000000      1.00000000      1.00000000      1.00000000      1.00000000      1.00000000      1.00000000      1.00000000      1.00000000      1.00000000      1.00000000      1.00000000
      1.00000000      1.00000000      1.00000000      1.00000000      1.00000000      1.00000000      1.00000000      1.00000000      1.00000000      1.00000000      1.00000000      1.00000000      1.00000000      1.00000000      1.00000000      1.00000000      1.00000000      1.00000000      1.00000000      1.00000000
      1.00000000      1.00000000      1.00000000      1.00000000      1.00000000      1.00000000      1.00000000      1.00000000      1.00000000      1.00000000      1.00000000      1.00000000      1.00000000      1.00000000      1.00000000      1.00000000      1.00000000      1.00000000      1.00000000      1.00000000
      1.00000000      1.00000000      1.00000000</v>
    <i name="NUPDOWN">     -1.00000000</i>
    <i type="logical" name="LSORBIT"> F  </i>
    <v name="SAXIS">      0.00000000      0.00000000      1.00000000</v>
    <i type="logical" name="LSPIRAL"> F  </i>
    <v name="QSPIRAL">      0.00000000      0.00000000      0.00000000</v>
    <i type="logical" name="LZEROZ"> F  </i>
   </separator>
   <separator name="electronic exchange-correlation" >
    <i type="logical" name="LASPH"> T  </i>
    <i type="logical" name="LMETAGGA"> F  </i>
   </separator>
   <separator name="electronic convergence" >
    <i type="int" name="NELM">   300</i>
    <i type="int" name="NELMDL">   -12</i>
    <i type="int" name="NELMIN">     6</i>
    <i name="ENINI">    520.00000000</i>
    <separator name="electronic convergence detail" >
     <i type="logical" name="LDIAG"> T  </i>
     <i type="logical" name="LSUBROT"> F  </i>
     <i name="WEIMIN">      0.00000000</i>
     <i name="EBREAK">      0.00000001</i>
     <i name="DEPER">      0.30000000</i>
     <i type="int" name="NRMM">     4</i>
     <i name="TIME">      0.40000000</i>
    </separator>
   </separator>
   <separator name="electronic mixer" >
    <i name="AMIX">      0.40000000</i>
    <i name="BMIX">      1.00000000</i>
    <i name="AMIN">      0.10000000</i>
    <i name="AMIX_MAG">      1.60000000</i>
    <i name="BMIX_MAG">      1.00000000</i>
    <separator name="electronic mixer details" >
     <i type="int" name="IMIX">     4</i>
     <i type="logical" name="MIXFIRST"> F  </i>
     <i type="int" name="MAXMIX">   -45</i>
     <i name="WC">    100.00000000</i>
     <i type="int" name="INIMIX">     1</i>
     <i type="int" name="MIXPRE">     1</i>
     <i type="int" name="MREMOVE">     5</i>
    </separator>
   </separator>
   <separator name="electronic dipolcorrection" >
    <i type="logical" name="LDIPOL"> T  </i>
    <i type="logical" name="LMONO"> F  </i>
    <i type="int" name="IDIPOL">     3</i>
    <i name="EPSILON">      1.00000000</i>
    <v name="DIPOL">   -100.00000000   -100.00000000   -100.00000000</v>
    <i name="EFIELD">      0.00000000</i>
   </separator>
  </separator>
  <separator name="grids" >
   <i type="int" name="NGX">    72</i>
   <i type="int" name="NGY">    72</i>
   <i type="int" name="NGZ">   250</i>
   <i type="int" name="NGXF">   144</i>
   <i type="int" name="NGYF">   144</i>
   <i type="int" name="NGZF">   500</i>
   <i type="logical" name="ADDGRID"> F  </i>
  </separator>
  <separator name="ionic" >
   <i type="int" name="NSW">     0</i>
   <i type="int" name="IBRION">    -1</i>
   <i type="int" name="MDALGO">     0</i>
   <i type="int" name="ISIF">     2</i>
   <i name="PSTRESS">      0.00000000</i>
   <i name="EDIFFG">      0.00005000</i>
   <i type="int" name="NFREE">     0</i>
   <i name="POTIM">      0.50000000</i>
   <i name="SMASS">     -3.00000000</i>
   <i name="SCALEE">      1.00000000</i>
  </separator>
  <separator name="ionic md" >
   <i name="TEBEG">      0.00010000</i>
   <i name="TEEND">      0.00010000</i>
   <i type="int" name="NBLOCK">     1</i>
   <i type="int" name="KBLOCK">     1</i>
   <i type="int" name="NPACO">   256</i>
   <i name="APACO">     16.00000000</i>
  </separator>
  <separator name="symmetry" >
   <i type="int" name="ISYM">     2</i>
   <i name="SYMPREC">      0.00001000</i>
  </separator>
  <separator name="dos" >
   <i type="int" name="LORBIT">     0</i>
   <v name="RWIGS">     -1.00000000     -1.00000000     -1.00000000</v>
   <i type="int" name="NEDOS">   301</i>
   <i name="EMIN">     10.00000000</i>
   <i name="EMAX">    -10.00000000</i>
   <i name="EFERMI">      0.00000000</i>
  </separator>
  <separator name="writing" >
   <i type="int" name="NWRITE">     2</i>
   <i type="logical" name="LWAVE"> F  </i>
   <i type="logical" name="LDOWNSAMPLE"> F  </i>
   <i type="logical" name="LCHARG"> T  </i>
   <i type="logical" name="LPARD"> F  </i>
   <i type="logical" name="LVTOT"> F  </i>
   <i type="logical" name="LVHAR"> T  </i>
   <i type="logical" name="LELF"> F  </i>
   <i type="logical" name="LOPTICS"> F  </i>
   <v name="STM">      0.00000000      0.00000000      0.00000000      0.00000000      0.00000000      0.00000000      0.00000000</v>
  </separator>
  <separator name="performance" >
   <i type="int" name="NPAR">     3</i>
   <i type="int" name="NSIM">     4</i>
   <i type="int" name="NBLK">    -1</i>
   <i type="logical" name="LPLANE"> T  </i>
   <i type="logical" name="LSCALAPACK"> T  </i>
   <i type="logical" name="LSCAAWARE"> F  </i>
   <i type="logical" name="LSCALU"> F  </i>
   <i type="logical" name="LASYNC"> F  </i>
   <i type="logical" name="LORBITALREAL"> F  </i>
  </separator>
  <separator name="miscellaneous" >
   <i type="int" name="IDIOT">     3</i>
   <i type="int" name="ISPECIAL">     0</i>
   <i type="logical" name="LMUSIC"> F  </i>
   <v name="POMASS">     24.30500000     16.00000000      1.00000000</v>
   <v name="DARWINR">      0.00000000      0.00000000      0.00000000</v>
   <v name="DARWINV">      1.00000000      1.00000000      1.00000000</v>
   <i type="logical" name="LCORR"> T  </i>
  </separator>
  <i type="logical" name="GGA_COMPAT"> T  </i>
  <i type="logical" name="LBERRY"> F  </i>
  <i type="int" name="ICORELEVEL">     0</i>
  <i type="logical" name="LDAU"> F  </i>
  <i type="int" name="I_CONSTRAINED_M">     0</i>
  <separator name="electronic exchange-correlation" >
   <i type="string" name="GGA">BO</i>
   <i type="int" name="VOSKOWN">     0</i>
   <i type="logical" name="LHFCALC"> F  </i>
   <i type="string" name="PRECFOCK"></i>
   <i type="logical" name="LSYMGRAD"> F  </i>
   <i type="logical" name="LHFONE"> F  </i>
   <i type="logical" name="LRHFCALC"> F  </i>
   <i type="logical" name="LTHOMAS"> F  </i>
   <i type="logical" name="LMODELHF"> F  </i>
   <i name="ENCUT4O">     -1.00000000</i>
   <i type="int" name="EXXOEP">     0</i>
   <i type="int" name="FOURORBIT">     0</i>
   <i name="AEXX">      0.00000000</i>
   <i name="HFALPHA">      0.00000000</i>
   <i name="MCALPHA">      0.00000000</i>
   <i name="ALDAX">      1.00000000</i>
   <i name="AGGAX">      1.00000000</i>
   <i name="ALDAC">      1.00000000</i>
   <i name="AGGAC">      0.00000000</i>
   <i type="int" name="NKREDX">     1</i>
   <i type="int" name="NKREDY">     1</i>
   <i type="int" name="NKREDZ">     1</i>
   <i type="logical" name="SHIFTRED"> F  </i>
   <i type="logical" name="ODDONLY"> F  </i>
   <i type="logical" name="EVENONLY"> F  </i>
   <i type="int" name="LMAXFOCK">     0</i>
   <i type="int" name="NMAXFOCKAE">     0</i>
   <i type="logical" name="LFOCKAEDFT"> F  </i>
   <i name="HFSCREEN">      0.00000000</i>
   <i name="HFSCREENC">      0.00000000</i>
   <i type="int" name="NBANDSGWLOW">     0</i>
  </separator>
  <separator name="vdW DFT" >
   <i type="logical" name="LUSE_VDW"> T  </i>
   <i name="Zab_VDW">     -0.84910000</i>
   <i name="PARAM1">      0.18333333</i>
   <i name="PARAM2">      0.22000000</i>
   <i name="PARAM3">      0.00000000</i>
  </separator>
  <separator name="model GW" >
   <i type="int" name="MODEL_GW">     0</i>
   <i name="MODEL_EPS0">     24.57100561</i>
   <i name="MODEL_ALPHA">      1.00000000</i>
  </separator>
  <separator name="linear response parameters" >
   <i type="logical" name="LEPSILON"> F  </i>
   <i type="logical" name="LRPA"> F  </i>
   <i type="logical" name="LNABLA"> F  </i>
   <i type="logical" name="LVEL"> F  </i>
   <i type="int" name="KINTER">     0</i>
   <i name="CSHIFT">      0.10000000</i>
   <i name="OMEGAMAX">     -1.00000000</i>
   <i name="DEG_THRESHOLD">      0.00200000</i>
   <i name="RTIME">     -0.10000000</i>
   <i name="WPLASMAI">      0.00000000</i>
   <v name="DFIELD">      0.00000000      0.00000000      0.00000000</v>
   <v name="WPLASMA">      0.00000000      0.00000000      0.00000000      0.00000000      0.00000000      0.00000000      0.00000000      0.00000000      0.00000000</v>
  </separator>
  <separator name="orbital magnetization" >
   <i type="logical" name="NUCIND"> F  </i>
   <v name="MAGPOS">      0.00000000      0.00000000      0.00000000</v>
   <i type="logical" name="LNICSALL"> T  </i>
   <i type="logical" name="ORBITALMAG"> F  </i>
   <i type="logical" name="LMAGBLOCH"> F  </i>
   <i type="logical" name="LCHIMAG"> F  </i>
   <i type="logical" name="LGAUGE"> T  </i>
   <i type="int" name="MAGATOM">     0</i>
   <v name="MAGDIPOL">      0.00000000      0.00000000      0.00000000</v>
   <v name="AVECCONST">      0.00000000      0.00000000      0.00000000</v>
  </separator>
  <separator name="response functions" >
   <i type="logical" name="LADDER"> F  </i>
   <i type="logical" name="LRPAFORCE"> F  </i>
   <i type="logical" name="LFXC"> F  </i>
   <i type="logical" name="LHARTREE"> T  </i>
   <i type="int" name="IBSE">     0</i>
   <v type="int" name="KPOINT">    -1     0     0     0</v>
   <i type="logical" name="LTCTE"> F  </i>
   <i type="logical" name="LTETE"> F  </i>
   <i type="logical" name="LTRIPLET"> F  </i>
   <i type="logical" name="LFXCEPS"> F  </i>
   <i type="logical" name="LFXHEG"> F  </i>
   <i type="int" name="NATURALO">     2</i>
   <i type="logical" name="L2ORDER"> F  </i>
   <i type="logical" name="LMP2LT"> F  </i>
   <i type="logical" name="LUSEW"> F  </i>
   <i name="ENCUTGW">     -2.00000000</i>
   <i name="ENCUTGWSOFT">     -2.00000000</i>
   <i name="ENCUTLF">     -1.00000000</i>
   <i type="int" name="LMAXMP2">    -1</i>
   <i name="SCISSOR">      0.00000000</i>
   <i type="int" name="NOMEGA">     0</i>
   <i type="int" name="NOMEGAR">     0</i>
   <i type="int" name="NBANDSGW">    -1</i>
   <i type="int" name="NBANDSO">    -1</i>
   <i type="int" name="NBANDSV">    -1</i>
   <i type="int" name="NELM">   300</i>
   <i type="int" name="NELMHF">     1</i>
   <i type="int" name="DIM">     3</i>
   <i type="int" name="ANTIRES">     0</i>
   <i name="OMEGAMAX">    -30.00000000</i>
   <i name="OMEGAMIN">    -30.00000000</i>
   <i name="OMEGATL">   -200.00000000</i>
   <i type="int" name="OMEGAGRID">   140</i>
   <i name="CSHIFT">     -0.10000000</i>
   <i type="logical" name="SELFENERGY"> F  </i>
   <i type="logical" name="LSPECTRAL"> F  </i>
   <i type="logical" name="LSPECTRALGW"> F  </i>
   <i type="logical" name="LSINGLES"> F  </i>
   <i type="logical" name="LFERMIGW"> F  </i>
   <i type="logical" name="ODDONLYGW"> F  </i>
   <i type="logical" name="EVENONLYGW"> F  </i>
   <i type="int" name="NKREDLFX">     1</i>
   <i type="int" name="NKREDLFY">     1</i>
   <i type="int" name="NKREDLFZ">     1</i>
   <i type="int" name="MAXMEM">  2800</i>
   <i type="int" name="TELESCOPE">     0</i>
   <i type="int" name="TAUPAR">     1</i>
   <i type="int" name="OMEGAPAR">    -1</i>
   <i name="LAMBDA">      1.00000000</i>
  </separator>
  <separator name="External order field" >
   <i name="OFIELD_KAPPA">      0.00000000</i>
   <v name="OFIELD_K">      0.00000000      0.00000000      0.00000000</v>
   <i name="OFIELD_Q6_NEAR">      0.00000000</i>
   <i name="OFIELD_Q6_FAR">      0.00000000</i>
   <i name="OFIELD_A">      0.00000000</i>
  </separator>
 </parameters>
 <atominfo>
  <atoms>      63 </atoms>
  <types>       3 </types>
  <array name="atoms" >
   <dimension dim="1">ion</dimension>
   <field type="string">element</field>
   <field type="int">atomtype</field>
   <set>
    <rc><c>Mg</c><c>   1</c></rc>
    <rc><c>Mg</c><c>   1</c></rc>
    <rc><c>Mg</c><c>   1</c></rc>
    <rc><c>Mg</c><c>   1</c></rc>
    <rc><c>Mg</c><c>   1</c></rc>
    <rc><c>Mg</c><c>   1</c></rc>
    <rc><c>Mg</c><c>   1</c></rc>
    <rc><c>Mg</c><c>   1</c></rc>
    <rc><c>Mg</c><c>   1</c></rc>
    <rc><c>Mg</c><c>   1</c></rc>
    <rc><c>Mg</c><c>   1</c></rc>
    <rc><c>Mg</c><c>   1</c></rc>
    <rc><c>Mg</c><c>   1</c></rc>
    <rc><c>Mg</c><c>   1</c></rc>
    <rc><c>Mg</c><c>   1</c></rc>
    <rc><c>Mg</c><c>   1</c></rc>
    <rc><c>Mg</c><c>   1</c></rc>
    <rc><c>Mg</c><c>   1</c></rc>
    <rc><c>Mg</c><c>   1</c></rc>
    <rc><c>Mg</c><c>   1</c></rc>
    <rc><c>Mg</c><c>   1</c></rc>
    <rc><c>Mg</c><c>   1</c></rc>
    <rc><c>Mg</c><c>   1</c></rc>
    <rc><c>Mg</c><c>   1</c></rc>
    <rc><c>Mg</c><c>   1</c></rc>
    <rc><c>Mg</c><c>   1</c></rc>
    <rc><c>Mg</c><c>   1</c></rc>
    <rc><c>Mg</c><c>   1</c></rc>
    <rc><c>Mg</c><c>   1</c></rc>
    <rc><c>Mg</c><c>   1</c></rc>
    <rc><c>Mg</c><c>   1</c></rc>
    <rc><c>Mg</c><c>   1</c></rc>
    <rc><c>Mg</c><c>   1</c></rc>
    <rc><c>Mg</c><c>   1</c></rc>
    <rc><c>Mg</c><c>   1</c></rc>
    <rc><c>Mg</c><c>   1</c></rc>
    <rc><c>Mg</c><c>   1</c></rc>
    <rc><c>Mg</c><c>   1</c></rc>
    <rc><c>Mg</c><c>   1</c></rc>
    <rc><c>Mg</c><c>   1</c></rc>
    <rc><c>Mg</c><c>   1</c></rc>
    <rc><c>Mg</c><c>   1</c></rc>
    <rc><c>Mg</c><c>   1</c></rc>
    <rc><c>Mg</c><c>   1</c></rc>
    <rc><c>Mg</c><c>   1</c></rc>
    <rc><c>O </c><c>   2</c></rc>
    <rc><c>O </c><c>   2</c></rc>
    <rc><c>O </c><c>   2</c></rc>
    <rc><c>O </c><c>   2</c></rc>
    <rc><c>O </c><c>   2</c></rc>
    <rc><c>O </c><c>   2</c></rc>
    <rc><c>H </c><c>   3</c></rc>
    <rc><c>H </c><c>   3</c></rc>
    <rc><c>H </c><c>   3</c></rc>
    <rc><c>H </c><c>   3</c></rc>
    <rc><c>H </c><c>   3</c></rc>
    <rc><c>H </c><c>   3</c></rc>
    <rc><c>H </c><c>   3</c></rc>
    <rc><c>H </c><c>   3</c></rc>
    <rc><c>H </c><c>   3</c></rc>
    <rc><c>H </c><c>   3</c></rc>
    <rc><c>H </c><c>   3</c></rc>
    <rc><c>H </c><c>   3</c></rc>
   </set>
  </array>
  <array name="atomtypes" >
   <dimension dim="1">type</dimension>
   <field type="int">atomspertype</field>
   <field type="string">element</field>
   <field>mass</field>
   <field>valence</field>
   <field type="string">pseudopotential</field>
   <set>
    <rc><c>  45</c><c>Mg</c><c>     24.30500000</c><c>      2.00000000</c><c>  PAW_PBE Mg 13Apr2007                  </c></rc>
    <rc><c>   6</c><c>O </c><c>     16.00000000</c><c>      6.00000000</c><c>  PAW_PBE O 08Apr2002                   </c></rc>
    <rc><c>  12</c><c>H </c><c>      1.00000000</c><c>      1.00000000</c><c>  PAW_PBE H 15Jun2001                   </c></rc>
   </set>
  </array>
 </atominfo>
 <structure name="initialpos" >
  <crystal>
   <varray name="basis" >
    <v>       9.55575275       0.00000000       0.00000000 </v>
    <v>      -4.77787638       8.27552464       0.00000000 </v>
    <v>       0.00000000       0.00000000      32.62509537 </v>
   </varray>
   <i name="volume">   2579.95558872 </i>
   <varray name="rec_basis" >
    <v>       0.10464900       0.06041913       0.00000000 </v>
    <v>       0.00000000       0.12083826       0.00000000 </v>
    <v>       0.00000000       0.00000000       0.03065125 </v>
   </varray>
  </crystal>
  <varray name="positions" >
   <v>       0.00000000       0.00000000       0.00000000 </v>
   <v>       0.99869516       0.99783861       0.15851697 </v>
   <v>       0.00184344       0.00007760       0.32992195 </v>
   <v>       0.00000001       0.33333336       0.00000000 </v>
   <v>       0.99993625       0.33324577       0.15737067 </v>
   <v>       0.99252856       0.33039194       0.31209637 </v>
   <v>       0.00000002       0.66666672       0.00000000 </v>
   <v>       0.99828151       0.66562072       0.15813614 </v>
   <v>       0.00520194       0.66851372       0.31513669 </v>
   <v>       0.33333334       0.00000000       0.00000000 </v>
   <v>       0.33184124       0.99815075       0.15761882 </v>
   <v>       0.32873286       0.99306000       0.31080444 </v>
   <v>       0.33333335       0.33333336       0.00000000 </v>
   <v>       0.33226913       0.33096931       0.15702704 </v>
   <v>       0.31914662       0.31844942       0.31099830 </v>
   <v>       0.33333336       0.66666672       0.00000000 </v>
   <v>       0.33194274       0.66553191       0.15820411 </v>
   <v>       0.32137552       0.66647891       0.33151097 </v>
   <v>       0.66666668       0.00000000       0.00000000 </v>
   <v>       0.66615363       0.99764376       0.15772639 </v>
   <v>       0.66832903       0.00431164       0.31354584 </v>
   <v>       0.66666668       0.33333336       0.00000000 </v>
   <v>       0.66615120       0.33402692       0.15876984 </v>
   <v>       0.66142291       0.31815412       0.32590683 </v>
   <v>       0.66666670       0.66666672       0.00000000 </v>
   <v>       0.66762985       0.66572113       0.15879064 </v>
   <v>       0.67037087       0.66889065       0.32357907 </v>
   <v>       0.11111113       0.22222222       0.07982145 </v>
   <v>       0.10661732       0.21854733       0.23543133 </v>
   <v>       0.11111114       0.55555561       0.07982145 </v>
   <v>       0.11409063       0.55644132       0.23673645 </v>
   <v>       0.11111116       0.88888894       0.07982145 </v>
   <v>       0.10745913       0.88699601       0.23597518 </v>
   <v>       0.44444450       0.22222222       0.07982145 </v>
   <v>       0.44585178       0.22234812       0.23606118 </v>
   <v>       0.44444450       0.55555561       0.07982145 </v>
   <v>       0.44427797       0.55396667       0.23523347 </v>
   <v>       0.44444451       0.88888894       0.07982145 </v>
   <v>       0.44360141       0.88248397       0.23628439 </v>
   <v>       0.77777779       0.22222222       0.07982145 </v>
   <v>       0.77457312       0.22001584       0.23500709 </v>
   <v>       0.77777781       0.55555561       0.07982145 </v>
   <v>       0.77194546       0.54938243       0.24108813 </v>
   <v>       0.77777784       0.88888894       0.07982145 </v>
   <v>       0.77781622       0.88395978       0.23989726 </v>
   <v>       0.99924531       0.99544976       0.39446639 </v>
   <v>       0.28670169       0.00815777       0.41571483 </v>
   <v>       0.89869826       0.21611484       0.41630683 </v>
   <v>       0.62094503       0.34825170       0.38862578 </v>
   <v>       0.64118465       0.62836246       0.38474633 </v>
   <v>       0.39080754       0.66635978       0.39176053 </v>
   <v>       0.97145373       0.07209164       0.40773189 </v>
   <v>       0.10073095       0.00915952       0.40694905 </v>
   <v>       0.38232645       0.11244520       0.40899480 </v>
   <v>       0.27468052       0.93977942       0.39173201 </v>
   <v>       0.99548457       0.32341535       0.41618196 </v>
   <v>       0.85639876       0.20437355       0.38787546 </v>
   <v>       0.62903131       0.46105191       0.39136568 </v>
   <v>       0.69612301       0.34400536       0.40826127 </v>
   <v>       0.73569033       0.70873329       0.39987030 </v>
   <v>       0.43411218       0.54914305       0.31879082 </v>
   <v>       0.40601820       0.75301314       0.41025175 </v>
   <v>       0.49212684       0.65356172       0.39346270 </v>
  </varray>
  <varray name="selective"  type="logical" >
   <v type="logical" >  F  F  F </v>
   <v type="logical" >  T  T  T </v>
   <v type="logical" >  T  T  T </v>
   <v type="logical" >  F  F  F </v>
   <v type="logical" >  T  T  T </v>
   <v type="logical" >  T  T  T </v>
   <v type="logical" >  F  F  F </v>
   <v type="logical" >  T  T  T </v>
   <v type="logical" >  T  T  T </v>
   <v type="logical" >  F  F  F </v>
   <v type="logical" >  T  T  T </v>
   <v type="logical" >  T  T  T </v>
   <v type="logical" >  F  F  F </v>
   <v type="logical" >  T  T  T </v>
   <v type="logical" >  T  T  T </v>
   <v type="logical" >  F  F  F </v>
   <v type="logical" >  T  T  T </v>
   <v type="logical" >  T  T  T </v>
   <v type="logical" >  F  F  F </v>
   <v type="logical" >  T  T  T </v>
   <v type="logical" >  T  T  T </v>
   <v type="logical" >  F  F  F </v>
   <v type="logical" >  T  T  T </v>
   <v type="logical" >  T  T  T </v>
   <v type="logical" >  F  F  F </v>
   <v type="logical" >  T  T  T </v>
   <v type="logical" >  T  T  T </v>
   <v type="logical" >  F  F  F </v>
   <v type="logical" >  T  T  T </v>
   <v type="logical" >  F  F  F </v>
   <v type="logical" >  T  T  T </v>
   <v type="logical" >  F  F  F </v>
   <v type="logical" >  T  T  T </v>
   <v type="logical" >  F  F  F </v>
   <v type="logical" >  T  T  T </v>
   <v type="logical" >  F  F  F </v>
   <v type="logical" >  T  T  T </v>
   <v type="logical" >  F  F  F </v>
   <v type="logical" >  T  T  T </v>
   <v type="logical" >  F  F  F </v>
   <v type="logical" >  T  T  T </v>
   <v type="logical" >  F  F  F </v>
   <v type="logical" >  T  T  T </v>
   <v type="logical" >  F  F  F </v>
   <v type="logical" >  T  T  T </v>
   <v type="logical" >  T  T  T </v>
   <v type="logical" >  T  T  T </v>
   <v type="logical" >  T  T  T </v>
   <v type="logical" >  T  T  T </v>
   <v type="logical" >  T  T  T </v>
   <v type="logical" >  T  T  T </v>
   <v type="logical" >  T  T  T </v>
   <v type="logical" >  T  T  T </v>
   <v type="logical" >  T  T  T </v>
   <v type="logical" >  T  T  T </v>
   <v type="logical" >  T  T  T </v>
   <v type="logical" >  T  T  T </v>
   <v type="logical" >  T  T  T </v>
   <v type="logical" >  T  T  T </v>
   <v type="logical" >  T  T  T </v>
   <v type="logical" >  T  T  T </v>
   <v type="logical" >  T  T  T </v>
   <v type="logical" >  T  T  T </v>
  </varray>
  <nose>
   <v>      -3.00000000       0.00000000       0.00010000       0.00010000 </v>
  </nose>
 </structure>
 <calculation>
  <scstep>
   <time name="diag">    2.05    2.05</time>
   <time name="diis">    1.59    1.59</time>
   <time name="orth">    0.39    0.39</time>
   <time name="total">   14.09   14.20</time>
   <dipole>
    <v name="dipole">      0.00000000       0.00000000      -0.00038471 </v>
    <i name="Tr[quadrupol]">  -1928.09916647 </i>
    <i name="Echarged">      0.00000000 </i>
    <i name="Edipol_quadrupol">      0.00000000 </i>
    <i name="Eion">      0.00000000 </i>
   </dipole>
   <energy>
    <i name="alphaZ">     63.16493893 </i>
    <i name="ewald">  13042.90576619 </i>
    <i name="hartreedc"> -16269.56889975 </i>
    <i name="XCdc">  -2050.92190685 </i>
    <i name="pawpsdc">   5135.15659847 </i>
    <i name="pawaedc">  -2719.01140655 </i>
    <i name="eentropy">      0.00000000 </i>
    <i name="bandstr">    212.21046510 </i>
    <i name="atom">   3827.98814510 </i>
    <i name="e_fr_energy">   1241.92370064 </i>
    <i name="e_wo_entrp">   1241.92370064 </i>
    <i name="e_0_energy">   1241.92370064 </i>
   </energy>
  </scstep>
  <scstep>
   <time name="diag">    1.27    1.29</time>
   <time name="diis">    1.48    1.48</time>
   <time name="orth">    0.51    0.51</time>
   <time name="total">    3.27    3.29</time>
   <dipole>
    <v name="dipole">      0.00000000       0.00000000      -0.00038471 </v>
    <i name="Tr[quadrupol]">  -1928.09916647 </i>
    <i name="Echarged">      0.00000000 </i>
    <i name="Edipol_quadrupol">      0.00000000 </i>
    <i name="Eion">      0.00000000 </i>
   </dipole>
   <energy>
    <i name="e_fr_energy">    545.67367333 </i>
    <i name="e_wo_entrp">    545.67367333 </i>
    <i name="e_0_energy">    545.67367333 </i>
   </energy>
  </scstep>
  <scstep>
   <time name="diag">    1.55    1.57</time>
   <time name="diis">    1.58    1.58</time>
   <time name="orth">    0.49    0.49</time>
   <time name="total">    3.63    3.65</time>
   <dipole>
    <v name="dipole">      0.00000000       0.00000000      -0.00038471 </v>
    <i name="Tr[quadrupol]">  -1928.09916647 </i>
    <i name="Echarged">      0.00000000 </i>
    <i name="Edipol_quadrupol">      0.00000000 </i>
    <i name="Eion">      0.00000000 </i>
   </dipole>
   <energy>
    <i name="e_fr_energy">    310.04048613 </i>
    <i name="e_wo_entrp">    310.04048613 </i>
    <i name="e_0_energy">    310.04048613 </i>
   </energy>
  </scstep>
  <scstep>
   <time name="diag">    1.59    1.62</time>
   <time name="diis">    1.61    1.61</time>
   <time name="orth">    0.52    0.52</time>
   <time name="total">    3.73    3.75</time>
   <dipole>
    <v name="dipole">      0.00000000       0.00000000      -0.00038471 </v>
    <i name="Tr[quadrupol]">  -1928.09916647 </i>
    <i name="Echarged">      0.00000000 </i>
    <i name="Edipol_quadrupol">      0.00000000 </i>
    <i name="Eion">      0.00000000 </i>
   </dipole>
   <energy>
    <i name="e_fr_energy">    139.58712652 </i>
    <i name="e_wo_entrp">    139.58712652 </i>
    <i name="e_0_energy">    139.58712652 </i>
   </energy>
  </scstep>
  <scstep>
   <time name="diag">    1.58    1.61</time>
   <time name="diis">    1.60    1.60</time>
   <time name="orth">    0.53    0.53</time>
   <time name="total">    3.72    3.74</time>
   <dipole>
    <v name="dipole">      0.00000000       0.00000000      -0.00038471 </v>
    <i name="Tr[quadrupol]">  -1928.09916647 </i>
    <i name="Echarged">      0.00000000 </i>
    <i name="Edipol_quadrupol">      0.00000000 </i>
    <i name="Eion">      0.00000000 </i>
   </dipole>
   <energy>
    <i name="e_fr_energy">     24.49135209 </i>
    <i name="e_wo_entrp">     24.49135209 </i>
    <i name="e_0_energy">     24.49135209 </i>
   </energy>
  </scstep>
  <scstep>
   <time name="diag">    1.57    1.60</time>
   <time name="diis">    1.38    1.39</time>
   <time name="orth">    0.48    0.48</time>
   <time name="total">    3.44    3.46</time>
   <dipole>
    <v name="dipole">      0.00000000       0.00000000      -0.00038471 </v>
    <i name="Tr[quadrupol]">  -1928.09916647 </i>
    <i name="Echarged">      0.00000000 </i>
    <i name="Edipol_quadrupol">      0.00000000 </i>
    <i name="Eion">      0.00000000 </i>
   </dipole>
   <energy>
    <i name="e_fr_energy">    -41.40049157 </i>
    <i name="e_wo_entrp">    -41.40049157 </i>
    <i name="e_0_energy">    -41.40049157 </i>
   </energy>
  </scstep>
  <scstep>
   <time name="diag">    1.92    1.94</time>
   <time name="diis">    2.11    2.11</time>
   <time name="orth">    1.07    1.07</time>
   <time name="total">    5.10    5.13</time>
   <dipole>
    <v name="dipole">      0.00000000       0.00000000      -0.00038471 </v>
    <i name="Tr[quadrupol]">  -1928.09916647 </i>
    <i name="Echarged">      0.00000000 </i>
    <i name="Edipol_quadrupol">      0.00000000 </i>
    <i name="Eion">      0.00000000 </i>
   </dipole>
   <energy>
    <i name="e_fr_energy">    -69.89638219 </i>
    <i name="e_wo_entrp">    -69.89638219 </i>
    <i name="e_0_energy">    -69.89638219 </i>
   </energy>
  </scstep>
  <scstep>
   <time name="diag">    2.70    2.72</time>
   <time name="diis">    2.20    2.20</time>
   <time name="orth">    1.01    1.01</time>
   <time name="total">    5.92    5.94</time>
   <dipole>
    <v name="dipole">      0.00000000       0.00000000      -0.00038471 </v>
    <i name="Tr[quadrupol]">  -1928.09916647 </i>
    <i name="Echarged">      0.00000000 </i>
    <i name="Edipol_quadrupol">      0.00000000 </i>
    <i name="Eion">      0.00000000 </i>
   </dipole>
   <energy>
    <i name="e_fr_energy">    -78.18057833 </i>
    <i name="e_wo_entrp">    -78.18057833 </i>
    <i name="e_0_energy">    -78.18057833 </i>
   </energy>
  </scstep>
  <scstep>
   <time name="diag">    2.73    2.75</time>
   <time name="diis">    5.09    5.09</time>
   <time name="orth">    1.00    1.00</time>
   <time name="total">    8.83    8.85</time>
   <dipole>
    <v name="dipole">      0.00000000       0.00000000      -0.00038471 </v>
    <i name="Tr[quadrupol]">  -1928.09916647 </i>
    <i name="Echarged">      0.00000000 </i>
    <i name="Edipol_quadrupol">      0.00000000 </i>
    <i name="Eion">      0.00000000 </i>
   </dipole>
   <energy>
    <i name="e_fr_energy">    -80.60162898 </i>
    <i name="e_wo_entrp">    -80.60162898 </i>
    <i name="e_0_energy">    -80.60162898 </i>
   </energy>
  </scstep>
  <scstep>
   <time name="diag">    2.67    2.69</time>
   <time name="diis">    5.90    5.90</time>
   <time name="orth">    1.02    1.02</time>
   <time name="total">    9.59    9.61</time>
   <dipole>
    <v name="dipole">      0.00000000       0.00000000      -0.00038471 </v>
    <i name="Tr[quadrupol]">  -1928.09916647 </i>
    <i name="Echarged">      0.00000000 </i>
    <i name="Edipol_quadrupol">      0.00000000 </i>
    <i name="Eion">      0.00000000 </i>
   </dipole>
   <energy>
    <i name="e_fr_energy">    -80.91644669 </i>
    <i name="e_wo_entrp">    -80.91644669 </i>
    <i name="e_0_energy">    -80.91644669 </i>
   </energy>
  </scstep>
  <scstep>
   <time name="diag">    2.71    2.74</time>
   <time name="diis">    5.96    5.97</time>
   <time name="orth">    0.99    0.99</time>
   <time name="total">    9.68    9.70</time>
   <dipole>
    <v name="dipole">      0.00000000       0.00000000      -0.00038471 </v>
    <i name="Tr[quadrupol]">  -1928.09916647 </i>
    <i name="Echarged">      0.00000000 </i>
    <i name="Edipol_quadrupol">      0.00000000 </i>
    <i name="Eion">      0.00000000 </i>
   </dipole>
   <energy>
    <i name="e_fr_energy">    -80.90816083 </i>
    <i name="e_wo_entrp">    -80.90816083 </i>
    <i name="e_0_energy">    -80.90816083 </i>
   </energy>
  </scstep>
  <scstep>
   <time name="diag">    2.58    2.61</time>
   <time name="diis">    4.49    4.49</time>
   <time name="orth">    0.38    0.38</time>
   <time name="total">    7.75    7.78</time>
   <dipole>
    <v name="dipole">      0.00000000       0.00000000      -0.00038471 </v>
    <i name="Tr[quadrupol]">  -1928.09916647 </i>
    <i name="Echarged">      0.00000000 </i>
    <i name="Edipol_quadrupol">      0.00000000 </i>
    <i name="Eion">      0.00000000 </i>
   </dipole>
   <energy>
    <i name="e_fr_energy">    -80.91075650 </i>
    <i name="e_wo_entrp">    -80.91075650 </i>
    <i name="e_0_energy">    -80.91075650 </i>
   </energy>
  </scstep>
  <scstep>
   <time name="diag">    1.56    1.56</time>
   <time name="diis">    3.66    3.66</time>
   <time name="orth">    0.51    0.51</time>
   <time name="total">   13.54   13.57</time>
   <dipole>
    <v name="dipole">      0.00000000       0.00000000       0.56105099 </v>
    <i name="Tr[quadrupol]">  -1939.20199316 </i>
    <i name="Echarged">      0.00000000 </i>
    <i name="Edipol_quadrupol">      0.00000000 </i>
    <i name="Eion">      0.00000000 </i>
   </dipole>
   <energy>
    <i name="e_fr_energy">    -71.00253252 </i>
    <i name="e_wo_entrp">    -71.00253252 </i>
    <i name="e_0_energy">    -71.00253252 </i>
   </energy>
  </scstep>
  <scstep>
   <time name="diag">    2.64    2.64</time>
   <time name="diis">    5.61    5.61</time>
   <time name="orth">    1.00    1.00</time>
   <time name="total">   17.57   17.59</time>
   <dipole>
    <v name="dipole">      0.00000000       0.00000000      -2.00422576 </v>
    <i name="Tr[quadrupol]">  -1925.19362874 </i>
    <i name="Echarged">      0.00000000 </i>
    <i name="Edipol_quadrupol">      0.00000000 </i>
    <i name="Eion">      0.00000000 </i>
   </dipole>
   <energy>
    <i name="e_fr_energy">    -96.18711134 </i>
    <i name="e_wo_entrp">    -96.18711134 </i>
    <i name="e_0_energy">    -96.18711134 </i>
   </energy>
  </scstep>
  <scstep>
   <time name="diag">    2.71    2.71</time>
   <time name="diis">    5.19    5.19</time>
   <time name="orth">    1.07    1.07</time>
   <time name="total">   19.28   19.31</time>
   <dipole>
    <v name="dipole">      0.00000000       0.00000000       0.12978136 </v>
    <i name="Tr[quadrupol]">  -1937.00112259 </i>
    <i name="Echarged">      0.00000000 </i>
    <i name="Edipol_quadrupol">      0.00000000 </i>
    <i name="Eion">      0.00000000 </i>
   </dipole>
   <energy>
    <i name="e_fr_energy">    -69.68535101 </i>
    <i name="e_wo_entrp">    -69.68535101 </i>
    <i name="e_0_energy">    -69.68535101 </i>
   </energy>
  </scstep>
  <scstep>
   <time name="diag">    1.81    1.81</time>
   <time name="diis">    3.65    3.65</time>
   <time name="orth">    0.48    0.48</time>
   <time name="total">   15.89   15.91</time>
   <dipole>
    <v name="dipole">      0.00000000       0.00000000       0.15358342 </v>
    <i name="Tr[quadrupol]">  -1941.97027919 </i>
    <i name="Echarged">      0.00000000 </i>
    <i name="Edipol_quadrupol">      0.00000000 </i>
    <i name="Eion">      0.00000000 </i>
   </dipole>
   <energy>
    <i name="e_fr_energy">    -69.67510875 </i>
    <i name="e_wo_entrp">    -69.67510875 </i>
    <i name="e_0_energy">    -69.67510875 </i>
   </energy>
  </scstep>
  <scstep>
   <time name="diag">    1.43    1.43</time>
   <time name="diis">    3.09    3.09</time>
   <time name="orth">    0.51    0.51</time>
   <time name="total">   13.01   13.03</time>
   <dipole>
    <v name="dipole">      0.00000000       0.00000000      -0.17752922 </v>
    <i name="Tr[quadrupol]">  -1940.42630761 </i>
    <i name="Echarged">      0.00000000 </i>
    <i name="Edipol_quadrupol">      0.00000000 </i>
    <i name="Eion">      0.00000000 </i>
   </dipole>
   <energy>
    <i name="e_fr_energy">    -69.34664509 </i>
    <i name="e_wo_entrp">    -69.34664509 </i>
    <i name="e_0_energy">    -69.34664509 </i>
   </energy>
  </scstep>
  <scstep>
   <time name="diag">    2.70    2.70</time>
   <time name="diis">    5.47    5.47</time>
   <time name="orth">    1.00    1.00</time>
   <time name="total">   18.82   18.84</time>
   <dipole>
    <v name="dipole">      0.00000000       0.00000000      -0.22889524 </v>
    <i name="Tr[quadrupol]">  -1941.23349199 </i>
    <i name="Echarged">      0.00000000 </i>
    <i name="Edipol_quadrupol">      0.00000000 </i>
    <i name="Eion">      0.00000000 </i>
   </dipole>
   <energy>
    <i name="e_fr_energy">    -69.32598083 </i>
    <i name="e_wo_entrp">    -69.32598083 </i>
    <i name="e_0_energy">    -69.32598083 </i>
   </energy>
  </scstep>
  <scstep>
   <time name="diag">    2.67    2.67</time>
   <time name="diis">    4.88    4.88</time>
   <time name="orth">    0.99    0.99</time>
   <time name="total">   18.92   18.95</time>
   <dipole>
    <v name="dipole">      0.00000000       0.00000000      -0.24442990 </v>
    <i name="Tr[quadrupol]">  -1942.09607645 </i>
    <i name="Echarged">      0.00000000 </i>
    <i name="Edipol_quadrupol">      0.00000000 </i>
    <i name="Eion">      0.00000000 </i>
   </dipole>
   <energy>
    <i name="e_fr_energy">    -69.32471910 </i>
    <i name="e_wo_entrp">    -69.32471910 </i>
    <i name="e_0_energy">    -69.32471910 </i>
   </energy>
  </scstep>
  <scstep>
   <time name="diag">    1.34    1.34</time>
   <time name="diis">    3.62    3.62</time>
   <time name="orth">    0.48    0.48</time>
   <time name="total">   14.87   14.89</time>
   <dipole>
    <v name="dipole">      0.00000000       0.00000000      -0.26367712 </v>
    <i name="Tr[quadrupol]">  -1942.62176280 </i>
    <i name="Echarged">      0.00000000 </i>
    <i name="Edipol_quadrupol">      0.00000000 </i>
    <i name="Eion">      0.00000000 </i>
   </dipole>
   <energy>
    <i name="e_fr_energy">    -69.32461306 </i>
    <i name="e_wo_entrp">    -69.32461306 </i>
    <i name="e_0_energy">    -69.32461306 </i>
   </energy>
  </scstep>
  <scstep>
   <time name="diag">    1.61    1.61</time>
   <time name="diis">    4.74    4.74</time>
   <time name="orth">    1.07    1.07</time>
   <time name="total">   15.46   15.48</time>
   <dipole>
    <v name="dipole">      0.00000000       0.00000000      -0.26519737 </v>
    <i name="Tr[quadrupol]">  -1943.16246160 </i>
    <i name="Echarged">      0.00000000 </i>
    <i name="Edipol_quadrupol">      0.00000000 </i>
    <i name="Eion">      0.00000000 </i>
   </dipole>
   <energy>
    <i name="e_fr_energy">    -69.32143490 </i>
    <i name="e_wo_entrp">    -69.32143490 </i>
    <i name="e_0_energy">    -69.32143490 </i>
   </energy>
  </scstep>
  <scstep>
   <time name="diag">    2.70    2.70</time>
   <time name="diis">    5.24    5.24</time>
   <time name="orth">    1.00    1.00</time>
   <time name="total">   19.41   19.43</time>
   <dipole>
    <v name="dipole">      0.00000000       0.00000000      -0.26100614 </v>
    <i name="Tr[quadrupol]">  -1943.29113209 </i>
    <i name="Echarged">      0.00000000 </i>
    <i name="Edipol_quadrupol">      0.00000000 </i>
    <i name="Eion">      0.00000000 </i>
   </dipole>
   <energy>
    <i name="e_fr_energy">    -69.31752220 </i>
    <i name="e_wo_entrp">    -69.31752220 </i>
    <i name="e_0_energy">    -69.31752220 </i>
   </energy>
  </scstep>
  <scstep>
   <time name="diag">    2.71    2.71</time>
   <time name="diis">    4.30    4.30</time>
   <time name="orth">    0.41    0.41</time>
   <time name="total">   17.48   17.51</time>
   <dipole>
    <v name="dipole">      0.00000000       0.00000000      -0.25672723 </v>
    <i name="Tr[quadrupol]">  -1943.49239669 </i>
    <i name="Echarged">      0.00000000 </i>
    <i name="Edipol_quadrupol">      0.00000000 </i>
    <i name="Eion">      0.00000000 </i>
   </dipole>
   <energy>
    <i name="e_fr_energy">    -69.31498724 </i>
    <i name="e_wo_entrp">    -69.31498724 </i>
    <i name="e_0_energy">    -69.31498724 </i>
   </energy>
  </scstep>
  <scstep>
   <time name="diag">    1.43    1.43</time>
   <time name="diis">    2.71    2.71</time>
   <time name="orth">    0.47    0.47</time>
   <time name="total">   12.11   12.13</time>
   <dipole>
    <v name="dipole">      0.00000000       0.00000000      -0.24732316 </v>
    <i name="Tr[quadrupol]">  -1943.69916547 </i>
    <i name="Echarged">      0.00000000 </i>
    <i name="Edipol_quadrupol">      0.00000000 </i>
    <i name="Eion">      0.00000000 </i>
   </dipole>
   <energy>
    <i name="e_fr_energy">    -69.31602980 </i>
    <i name="e_wo_entrp">    -69.31602980 </i>
    <i name="e_0_energy">    -69.31602980 </i>
   </energy>
  </scstep>
  <scstep>
   <time name="diag">    2.15    2.15</time>
   <time name="diis">    3.79    3.79</time>
   <time name="orth">    0.99    0.99</time>
   <time name="total">   15.13   15.16</time>
   <dipole>
    <v name="dipole">      0.00000000       0.00000000      -0.24143013 </v>
    <i name="Tr[quadrupol]">  -1943.77010395 </i>
    <i name="Echarged">      0.00000000 </i>
    <i name="Edipol_quadrupol">      0.00000000 </i>
    <i name="Eion">      0.00000000 </i>
   </dipole>
   <energy>
    <i name="e_fr_energy">    -69.31642737 </i>
    <i name="e_wo_entrp">    -69.31642737 </i>
    <i name="e_0_energy">    -69.31642737 </i>
   </energy>
  </scstep>
  <scstep>
   <time name="diag">    2.65    2.65</time>
   <time name="diis">    3.69    3.69</time>
   <time name="orth">    1.00    1.00</time>
   <time name="total">   17.61   17.63</time>
   <dipole>
    <v name="dipole">      0.00000000       0.00000000      -0.23697106 </v>
    <i name="Tr[quadrupol]">  -1943.81117276 </i>
    <i name="Echarged">      0.00000000 </i>
    <i name="Edipol_quadrupol">      0.00000000 </i>
    <i name="Eion">      0.00000000 </i>
   </dipole>
   <energy>
    <i name="e_fr_energy">    -69.31627529 </i>
    <i name="e_wo_entrp">    -69.31627529 </i>
    <i name="e_0_energy">    -69.31627529 </i>
   </energy>
  </scstep>
  <scstep>
   <time name="diag">    2.65    2.65</time>
   <time name="diis">    3.50    3.50</time>
   <time name="orth">    0.86    0.86</time>
   <time name="total">   17.01   17.03</time>
   <dipole>
    <v name="dipole">      0.00000000       0.00000000      -0.23496330 </v>
    <i name="Tr[quadrupol]">  -1943.84536957 </i>
    <i name="Echarged">      0.00000000 </i>
    <i name="Edipol_quadrupol">      0.00000000 </i>
    <i name="Eion">      0.00000000 </i>
   </dipole>
   <energy>
    <i name="e_fr_energy">    -69.31625936 </i>
    <i name="e_wo_entrp">    -69.31625936 </i>
    <i name="e_0_energy">    -69.31625936 </i>
   </energy>
  </scstep>
  <scstep>
   <time name="diag">    1.45    1.45</time>
   <time name="diis">    2.26    2.26</time>
   <time name="orth">    0.49    0.49</time>
   <time name="total">   11.66   11.68</time>
   <dipole>
    <v name="dipole">      0.00000000       0.00000000      -0.23342876 </v>
    <i name="Tr[quadrupol]">  -1943.84130408 </i>
    <i name="Echarged">      0.00000000 </i>
    <i name="Edipol_quadrupol">      0.00000000 </i>
    <i name="Eion">      0.00000000 </i>
   </dipole>
   <energy>
    <i name="e_fr_energy">    -69.31630747 </i>
    <i name="e_wo_entrp">    -69.31630747 </i>
    <i name="e_0_energy">    -69.31630747 </i>
   </energy>
  </scstep>
  <scstep>
   <time name="diag">    2.09    2.09</time>
   <time name="diis">    3.15    3.15</time>
   <time name="orth">    1.01    1.01</time>
   <time name="total">   14.36   14.38</time>
   <dipole>
    <v name="dipole">      0.00000000       0.00000000      -0.23341252 </v>
    <i name="Tr[quadrupol]">  -1943.77613488 </i>
    <i name="Echarged">      0.00000000 </i>
    <i name="Edipol_quadrupol">      0.00000000 </i>
    <i name="Eion">      0.00000000 </i>
   </dipole>
   <energy>
    <i name="e_fr_energy">    -69.31633026 </i>
    <i name="e_wo_entrp">    -69.31633026 </i>
    <i name="e_0_energy">    -69.31633026 </i>
   </energy>
  </scstep>
  <scstep>
   <time name="diag">    2.64    2.64</time>
   <time name="diis">    3.05    3.05</time>
   <time name="orth">    0.99    0.99</time>
   <time name="total">   16.99   17.02</time>
   <dipole>
    <v name="dipole">      0.00000000       0.00000000      -0.23335039 </v>
    <i name="Tr[quadrupol]">  -1944.07925950 </i>
    <i name="Echarged">      0.00000000 </i>
    <i name="Edipol_quadrupol">      0.00000000 </i>
    <i name="Eion">      0.00000000 </i>
   </dipole>
   <energy>
    <i name="e_fr_energy">    -69.31632460 </i>
    <i name="e_wo_entrp">    -69.31632460 </i>
    <i name="e_0_energy">    -69.31632460 </i>
   </energy>
  </scstep>
  <scstep>
   <time name="diag">    2.67    2.67</time>
   <time name="diis">    3.05    3.05</time>
   <time name="orth">    1.07    1.07</time>
   <time name="total">   17.09   17.11</time>
   <dipole>
    <v name="dipole">      0.00000000       0.00000000      -0.23384485 </v>
    <i name="Tr[quadrupol]">  -1944.07770952 </i>
    <i name="Echarged">      0.00000000 </i>
    <i name="Edipol_quadrupol">      0.00000000 </i>
    <i name="Eion">      0.00000000 </i>
   </dipole>
   <energy>
    <i name="e_fr_energy">    -69.31638393 </i>
    <i name="e_wo_entrp">    -69.31638393 </i>
    <i name="e_0_energy">    -69.31638393 </i>
   </energy>
  </scstep>
  <scstep>
   <time name="diag">    1.58    1.58</time>
   <time name="diis">    2.19    2.19</time>
   <time name="orth">    0.55    0.55</time>
   <time name="total">   13.13   13.16</time>
   <dipole>
    <v name="dipole">      0.00000000       0.00000000      -0.23401634 </v>
    <i name="Tr[quadrupol]">  -1944.07820393 </i>
    <i name="Echarged">      0.00000000 </i>
    <i name="Edipol_quadrupol">      0.00000000 </i>
    <i name="Eion">      0.00000000 </i>
   </dipole>
   <energy>
    <i name="alphaZ">     63.89101016 </i>
    <i name="ewald">  13042.90576619 </i>
    <i name="hartreedc"> -16506.05678396 </i>
    <i name="XCdc">  -2034.55053562 </i>
    <i name="pawpsdc">   5964.63144561 </i>
    <i name="pawaedc">  -3550.96953440 </i>
    <i name="eentropy">      0.00000000 </i>
    <i name="bandstr">   -877.15589474 </i>
    <i name="atom">   3827.98814510 </i>
    <i name="e_fr_energy">    -69.31638167 </i>
    <i name="e_wo_entrp">    -69.31638167 </i>
    <i name="e_0_energy">    -69.31638167 </i>
   </energy>
  </scstep>
  <structure>
   <crystal>
    <varray name="basis" >
     <v>       9.55575275       0.00000000       0.00000000 </v>
     <v>      -4.77787638       8.27552464       0.00000000 </v>
     <v>       0.00000000       0.00000000      32.62509537 </v>
    </varray>
    <i name="volume">   2579.95558872 </i>
    <varray name="rec_basis" >
     <v>       0.10464900       0.06041913       0.00000000 </v>
     <v>       0.00000000       0.12083826       0.00000000 </v>
     <v>       0.00000000       0.00000000       0.03065125 </v>
    </varray>
   </crystal>
   <varray name="positions" >
    <v>       0.00000000       0.00000000       0.00000000 </v>
    <v>       0.99869516       0.99783861       0.15851697 </v>
    <v>       0.00184344       0.00007760       0.32992195 </v>
    <v>       0.00000001       0.33333336       0.00000000 </v>
    <v>       0.99993625       0.33324577       0.15737067 </v>
    <v>       0.99252856       0.33039194       0.31209637 </v>
    <v>       0.00000002       0.66666672       0.00000000 </v>
    <v>       0.99828151       0.66562072       0.15813614 </v>
    <v>       0.00520194       0.66851372       0.31513669 </v>
    <v>       0.33333334       0.00000000       0.00000000 </v>
    <v>       0.33184124       0.99815075       0.15761882 </v>
    <v>       0.32873286       0.99306000       0.31080444 </v>
    <v>       0.33333335       0.33333336       0.00000000 </v>
    <v>       0.33226913       0.33096931       0.15702704 </v>
    <v>       0.31914662       0.31844942       0.31099830 </v>
    <v>       0.33333336       0.66666672       0.00000000 </v>
    <v>       0.33194274       0.66553191       0.15820411 </v>
    <v>       0.32137552       0.66647891       0.33151097 </v>
    <v>       0.66666668       0.00000000       0.00000000 </v>
    <v>       0.66615363       0.99764376       0.15772639 </v>
    <v>       0.66832903       0.00431164       0.31354584 </v>
    <v>       0.66666668       0.33333336       0.00000000 </v>
    <v>       0.66615120       0.33402692       0.15876984 </v>
    <v>       0.66142291       0.31815412       0.32590683 </v>
    <v>       0.66666670       0.66666672       0.00000000 </v>
    <v>       0.66762985       0.66572113       0.15879064 </v>
    <v>       0.67037087       0.66889065       0.32357907 </v>
    <v>       0.11111113       0.22222222       0.07982145 </v>
    <v>       0.10661732       0.21854733       0.23543133 </v>
    <v>       0.11111114       0.55555561       0.07982145 </v>
    <v>       0.11409063       0.55644132       0.23673645 </v>
    <v>       0.11111116       0.88888894       0.07982145 </v>
    <v>       0.10745913       0.88699601       0.23597518 </v>
    <v>       0.44444450       0.22222222       0.07982145 </v>
    <v>       0.44585178       0.22234812       0.23606118 </v>
    <v>       0.44444450       0.55555561       0.07982145 </v>
    <v>       0.44427797       0.55396667       0.23523347 </v>
    <v>       0.44444451       0.88888894       0.07982145 </v>
    <v>       0.44360141       0.88248397       0.23628439 </v>
    <v>       0.77777779       0.22222222       0.07982145 </v>
    <v>       0.77457312       0.22001584       0.23500709 </v>
    <v>       0.77777781       0.55555561       0.07982145 </v>
    <v>       0.77194546       0.54938243       0.24108813 </v>
    <v>       0.77777784       0.88888894       0.07982145 </v>
    <v>       0.77781622       0.88395978       0.23989726 </v>
    <v>       0.99924531       0.99544976       0.39446639 </v>
    <v>       0.28670169       0.00815777       0.41571483 </v>
    <v>       0.89869826       0.21611484       0.41630683 </v>
    <v>       0.62094503       0.34825170       0.38862578 </v>
    <v>       0.64118465       0.62836246       0.38474633 </v>
    <v>       0.39080754       0.66635978       0.39176053 </v>
    <v>       0.97145373       0.07209164       0.40773189 </v>
    <v>       0.10073095       0.00915952       0.40694905 </v>
    <v>       0.38232645       0.11244520       0.40899480 </v>
    <v>       0.27468052       0.93977942       0.39173201 </v>
    <v>       0.99548457       0.32341535       0.41618196 </v>
    <v>       0.85639876       0.20437355       0.38787546 </v>
    <v>       0.62903131       0.46105191       0.39136568 </v>
    <v>       0.69612301       0.34400536       0.40826127 </v>
    <v>       0.73569033       0.70873329       0.39987030 </v>
    <v>       0.43411218       0.54914305       0.31879082 </v>
    <v>       0.40601820       0.75301314       0.41025175 </v>
    <v>       0.49212684       0.65356172       0.39346270 </v>
   </varray>
  </structure>
  <varray name="forces" >
   <v>       0.02497994      -0.00897518       0.00276995 </v>
   <v>       0.02264926      -0.00641299       0.00432951 </v>
   <v>       0.01827399      -0.00646832      -0.00121405 </v>
   <v>      -0.04916072      -0.01708348      -0.04423859 </v>
   <v>       0.00183825      -0.00029067       0.00033511 </v>
   <v>       0.00163364       0.00222973       0.01269314 </v>
   <v>       0.02282847       0.02515812      -0.01465947 </v>
   <v>      -0.00754557       0.01555661      -0.00651947 </v>
   <v>       0.00965128       0.01574974       0.01178090 </v>
   <v>      -0.01576951      -0.02738155      -0.02279874 </v>
   <v>      -0.00971701      -0.00405485      -0.00390693 </v>
   <v>      -0.01376084      -0.01623483       0.01796639 </v>
   <v>      -0.00198275       0.01134345      -0.03733178 </v>
   <v>       0.00909416      -0.02278267      -0.01053103 </v>
   <v>      -0.00043121      -0.00508868       0.00874440 </v>
   <v>      -0.00826744      -0.00133697      -0.02703951 </v>
   <v>      -0.01772751       0.01514224      -0.00114195 </v>
   <v>      -0.01489456      -0.00355312       0.01628987 </v>
   <v>      -0.00401715       0.05495053      -0.04335813 </v>
   <v>      -0.00302361      -0.00052180      -0.00352333 </v>
   <v>       0.00103107       0.00550143       0.01874607 </v>
   <v>       0.05517247      -0.03518261      -0.02564017 </v>
   <v>      -0.00661380       0.00262207       0.00206180 </v>
   <v>       0.00261722       0.00170716       0.00884181 </v>
   <v>      -0.02002709      -0.00547722      -0.05190714 </v>
   <v>       0.01860392      -0.00043412      -0.00641630 </v>
   <v>       0.00416988       0.00189560       0.00419997 </v>
   <v>       0.01210066      -0.02183271       0.02172788 </v>
   <v>       0.00321145      -0.01088269      -0.00193933 </v>
   <v>       0.02097690       0.01201318       0.03479704 </v>
   <v>       0.00406861       0.00236560       0.00209933 </v>
   <v>      -0.03370632       0.00148003      -0.02725780 </v>
   <v>      -0.02162489       0.00344442       0.01314474 </v>
   <v>      -0.00306034       0.01184003       0.04364200 </v>
   <v>       0.00319693       0.01808896      -0.00536525 </v>
   <v>       0.00436757       0.01356702       0.01318214 </v>
   <v>       0.01308351      -0.00094085      -0.00084991 </v>
   <v>       0.00103032      -0.03923209       0.04306950 </v>
   <v>       0.00340822      -0.00958161      -0.00512050 </v>
   <v>      -0.00429803       0.00516556      -0.00705361 </v>
   <v>      -0.00302261       0.00218173      -0.00419685 </v>
   <v>      -0.02106070       0.00375623       0.07381318 </v>
   <v>      -0.00795859      -0.00638082      -0.01535724 </v>
   <v>       0.02057651      -0.02419476       0.05198417 </v>
   <v>       0.00378392       0.00159974      -0.00781268 </v>
   <v>      -0.00722720       0.00124167       0.00012718 </v>
   <v>      -0.01531189       0.02471885       0.01708706 </v>
   <v>       0.00202390       0.00400124       0.01502866 </v>
   <v>      -0.00433488       0.00195509       0.00597018 </v>
   <v>      -0.01656110      -0.00031040      -0.00685917 </v>
   <v>       0.01225558      -0.02179337      -0.00252739 </v>
   <v>      -0.00320631       0.00100419      -0.00924561 </v>
   <v>      -0.00178421       0.00504169      -0.01439822 </v>
   <v>      -0.01959860       0.02427525      -0.00154260 </v>
   <v>       0.00319012       0.00335697       0.01458136 </v>
   <v>       0.00578035       0.00103955      -0.00933291 </v>
   <v>      -0.00317514      -0.00052757      -0.00435416 </v>
   <v>      -0.00403515       0.00767139      -0.00642593 </v>
   <v>      -0.00030648       0.01201707       0.00166263 </v>
   <v>      -0.00688082       0.01643869      -0.00857002 </v>
   <v>      -0.00201369      -0.00067882      -0.00956162 </v>
   <v>       0.02241747      -0.01438666       0.00299628 </v>
   <v>       0.02409016      -0.01809940      -0.01567486 </v>
  </varray>
  <varray name="stress" >
   <v>      -5.52778304       0.31649439      -0.03499080 </v>
   <v>       0.31649448      -5.06744652       0.29048533 </v>
   <v>      -0.03499076       0.29048529       0.40707895 </v>
  </varray>
  <energy>
   <i name="e_fr_energy">    -69.31638167 </i>
   <i name="e_wo_entrp">    -69.31638167 </i>
   <i name="e_0_energy">      0.00000000 </i>
  </energy>
  <time name="totalsc">  429.65  431.03</time>
  <eigenvalues>
   <array>
    <dimension dim="1">band</dimension>
    <dimension dim="2">kpoint</dimension>
    <dimension dim="3">spin</dimension>
    <field>eigene</field>
    <field>occ</field>
    <set>
     <set comment="spin 1">
      <set comment="kpoint 1">
       <r>  -23.5133    1.0000 </r>
       <r>  -23.3357    1.0000 </r>
       <r>  -23.2896    1.0000 </r>
       <r>  -23.2597    1.0000 </r>
       <r>  -23.0233    1.0000 </r>
       <r>  -21.3144    1.0000 </r>
       <r>  -11.5138    1.0000 </r>
       <r>  -11.4351    1.0000 </r>
       <r>  -11.3843    1.0000 </r>
       <r>  -11.0877    1.0000 </r>
       <r>  -10.9171    1.0000 </r>
       <r>   -8.7581    1.0000 </r>
       <r>   -8.5413    1.0000 </r>
       <r>   -8.4840    1.0000 </r>
       <r>   -8.3293    1.0000 </r>
       <r>   -7.6939    1.0000 </r>
       <r>   -7.5703    1.0000 </r>
       <r>   -7.5069    1.0000 </r>
       <r>   -7.1101    1.0000 </r>
       <r>   -6.5751    1.0000 </r>
       <r>   -6.3699    1.0000 </r>
       <r>   -6.2869    1.0000 </r>
       <r>   -6.0740    1.0000 </r>
       <r>   -5.8202    1.0000 </r>
       <r>   -5.6832    1.0000 </r>
       <r>   -5.5433    1.0000 </r>
       <r>   -5.4499    1.0000 </r>
       <r>   -5.4032    1.0000 </r>
       <r>   -5.3878    1.0000 </r>
       <r>   -5.3816    1.0000 </r>
       <r>   -5.3505    1.0000 </r>
       <r>   -5.3186    1.0000 </r>
       <r>   -5.2874    1.0000 </r>
       <r>   -4.9859    1.0000 </r>
       <r>   -4.8726    1.0000 </r>
       <r>   -4.8596    1.0000 </r>
       <r>   -4.8436    1.0000 </r>
       <r>   -4.8042    1.0000 </r>
       <r>   -4.7241    1.0000 </r>
       <r>   -4.7146    1.0000 </r>
       <r>   -4.4325    1.0000 </r>
       <r>   -3.9955    1.0000 </r>
       <r>   -3.9702    1.0000 </r>
       <r>   -3.9288    1.0000 </r>
       <r>   -3.8461    1.0000 </r>
       <r>   -3.8198    1.0000 </r>
       <r>   -3.3999    1.0000 </r>
       <r>   -3.1937    1.0000 </r>
       <r>   -2.8463    1.0000 </r>
       <r>   -2.7906    1.0000 </r>
       <r>   -2.7659    1.0000 </r>
       <r>   -2.6971    1.0000 </r>
       <r>   -2.6589    1.0000 </r>
       <r>   -1.9278    1.0000 </r>
       <r>   -1.7944    1.0000 </r>
       <r>   -1.4120    1.0000 </r>
       <r>   -1.3337    1.0000 </r>
       <r>   -1.2938    1.0000 </r>
       <r>   -1.2604    1.0000 </r>
       <r>   -1.2234    1.0000 </r>
       <r>   -1.2116    1.0000 </r>
       <r>   -1.2022    1.0000 </r>
       <r>   -1.1856    1.0000 </r>
       <r>   -1.1690    1.0000 </r>
       <r>   -1.1635    1.0000 </r>
       <r>   -1.1106    1.0000 </r>
       <r>   -0.9016    1.0000 </r>
       <r>   -0.8864    1.0000 </r>
       <r>   -0.8008    0.6502 </r>
       <r>   -0.6842    0.0000 </r>
       <r>   -0.6576    0.0000 </r>
       <r>   -0.5640    0.0000 </r>
       <r>   -0.4235    0.0000 </r>
       <r>   -0.2637    0.0000 </r>
       <r>   -0.1811    0.0000 </r>
       <r>   -0.0081    0.0000 </r>
       <r>    0.0702    0.0000 </r>
       <r>    0.1028    0.0000 </r>
       <r>    0.1291    0.0000 </r>
       <r>    0.1461    0.0000 </r>
       <r>    0.2792    0.0000 </r>
       <r>    0.3492    0.0000 </r>
       <r>    0.4373    0.0000 </r>
       <r>    0.8135    0.0000 </r>
       <r>    0.8626    0.0000 </r>
       <r>    0.8902    0.0000 </r>
       <r>    0.8963    0.0000 </r>
       <r>    0.9150    0.0000 </r>
       <r>    0.9338    0.0000 </r>
       <r>    0.9486    0.0000 </r>
       <r>    0.9814    0.0000 </r>
       <r>    1.0577    0.0000 </r>
       <r>    1.1596    0.0000 </r>
       <r>    1.1992    0.0000 </r>
       <r>    1.2266    0.0000 </r>
       <r>    1.4327    0.0000 </r>
       <r>    1.4403    0.0000 </r>
       <r>    1.4454    0.0000 </r>
       <r>    1.4645    0.0000 </r>
       <r>    1.5170    0.0000 </r>
       <r>    1.5444    0.0000 </r>
       <r>    1.6328    0.0000 </r>
      </set>
      <set comment="kpoint 2">
       <r>  -23.5095    1.0000 </r>
       <r>  -23.3515    1.0000 </r>
       <r>  -23.2865    1.0000 </r>
       <r>  -23.2495    1.0000 </r>
       <r>  -23.0244    1.0000 </r>
       <r>  -21.3145    1.0000 </r>
       <r>  -11.5081    1.0000 </r>
       <r>  -11.4406    1.0000 </r>
       <r>  -11.3858    1.0000 </r>
       <r>  -11.0826    1.0000 </r>
       <r>  -10.9207    1.0000 </r>
       <r>   -8.7491    1.0000 </r>
       <r>   -8.5393    1.0000 </r>
       <r>   -8.5086    1.0000 </r>
       <r>   -8.3102    1.0000 </r>
       <r>   -7.6866    1.0000 </r>
       <r>   -7.5133    1.0000 </r>
       <r>   -7.3403    1.0000 </r>
       <r>   -6.9771    1.0000 </r>
       <r>   -6.6350    1.0000 </r>
       <r>   -6.4606    1.0000 </r>
       <r>   -6.3702    1.0000 </r>
       <r>   -6.2646    1.0000 </r>
       <r>   -6.0959    1.0000 </r>
       <r>   -5.9526    1.0000 </r>
       <r>   -5.8472    1.0000 </r>
       <r>   -5.8387    1.0000 </r>
       <r>   -5.6764    1.0000 </r>
       <r>   -5.6111    1.0000 </r>
       <r>   -5.5082    1.0000 </r>
       <r>   -5.3928    1.0000 </r>
       <r>   -5.2646    1.0000 </r>
       <r>   -5.1855    1.0000 </r>
       <r>   -4.9794    1.0000 </r>
       <r>   -4.8728    1.0000 </r>
       <r>   -4.5750    1.0000 </r>
       <r>   -4.4384    1.0000 </r>
       <r>   -4.4141    1.0000 </r>
       <r>   -4.3501    1.0000 </r>
       <r>   -4.1500    1.0000 </r>
       <r>   -3.8888    1.0000 </r>
       <r>   -3.8394    1.0000 </r>
       <r>   -3.7438    1.0000 </r>
       <r>   -3.5958    1.0000 </r>
       <r>   -3.2226    1.0000 </r>
       <r>   -3.1921    1.0000 </r>
       <r>   -3.1241    1.0000 </r>
       <r>   -3.0688    1.0000 </r>
       <r>   -3.0349    1.0000 </r>
       <r>   -3.0097    1.0000 </r>
       <r>   -2.9553    1.0000 </r>
       <r>   -2.6510    1.0000 </r>
       <r>   -2.4858    1.0000 </r>
       <r>   -2.4172    1.0000 </r>
       <r>   -2.3519    1.0000 </r>
       <r>   -2.1278    1.0000 </r>
       <r>   -1.8688    1.0000 </r>
       <r>   -1.8228    1.0000 </r>
       <r>   -1.7506    1.0000 </r>
       <r>   -1.6812    1.0000 </r>
       <r>   -1.6550    1.0000 </r>
       <r>   -1.6125    1.0000 </r>
       <r>   -1.5721    1.0000 </r>
       <r>   -1.4653    1.0000 </r>
       <r>   -1.0968    1.0000 </r>
       <r>   -0.9976    1.0000 </r>
       <r>   -0.9616    1.0000 </r>
       <r>   -0.9002    1.0000 </r>
       <r>   -0.7770    0.4219 </r>
       <r>   -0.7632    0.1390 </r>
       <r>   -0.6842   -0.0224 </r>
       <r>   -0.6113    0.0000 </r>
       <r>   -0.3642    0.0000 </r>
       <r>   -0.2275    0.0000 </r>
       <r>   -0.1656    0.0000 </r>
       <r>   -0.1046    0.0000 </r>
       <r>   -0.0743    0.0000 </r>
       <r>    0.0532    0.0000 </r>
       <r>    0.1382    0.0000 </r>
       <r>    0.1942    0.0000 </r>
       <r>    0.2573    0.0000 </r>
       <r>    0.3508    0.0000 </r>
       <r>    0.3962    0.0000 </r>
       <r>    0.4547    0.0000 </r>
       <r>    0.5011    0.0000 </r>
       <r>    0.6414    0.0000 </r>
       <r>    0.7511    0.0000 </r>
       <r>    0.8114    0.0000 </r>
       <r>    0.9007    0.0000 </r>
       <r>    1.0251    0.0000 </r>
       <r>    1.0386    0.0000 </r>
       <r>    1.1058    0.0000 </r>
       <r>    1.1593    0.0000 </r>
       <r>    1.2203    0.0000 </r>
       <r>    1.2527    0.0000 </r>
       <r>    1.3010    0.0000 </r>
       <r>    1.4037    0.0000 </r>
       <r>    1.4927    0.0000 </r>
       <r>    1.5417    0.0000 </r>
       <r>    1.6053    0.0000 </r>
       <r>    1.7958    0.0000 </r>
       <r>    2.0241    0.0000 </r>
      </set>
      <set comment="kpoint 3">
       <r>  -23.5122    1.0000 </r>
       <r>  -23.3347    1.0000 </r>
       <r>  -23.2954    1.0000 </r>
       <r>  -23.2570    1.0000 </r>
       <r>  -23.0221    1.0000 </r>
       <r>  -21.3145    1.0000 </r>
       <r>  -11.5084    1.0000 </r>
       <r>  -11.4381    1.0000 </r>
       <r>  -11.3856    1.0000 </r>
       <r>  -11.0887    1.0000 </r>
       <r>  -10.9172    1.0000 </r>
       <r>   -8.7522    1.0000 </r>
       <r>   -8.5457    1.0000 </r>
       <r>   -8.5049    1.0000 </r>
       <r>   -8.2985    1.0000 </r>
       <r>   -7.6972    1.0000 </r>
       <r>   -7.5076    1.0000 </r>
       <r>   -7.3388    1.0000 </r>
       <r>   -6.9758    1.0000 </r>
       <r>   -6.6445    1.0000 </r>
       <r>   -6.4759    1.0000 </r>
       <r>   -6.3654    1.0000 </r>
       <r>   -6.2577    1.0000 </r>
       <r>   -6.1037    1.0000 </r>
       <r>   -5.9246    1.0000 </r>
       <r>   -5.8553    1.0000 </r>
       <r>   -5.8363    1.0000 </r>
       <r>   -5.6553    1.0000 </r>
       <r>   -5.5942    1.0000 </r>
       <r>   -5.5350    1.0000 </r>
       <r>   -5.4283    1.0000 </r>
       <r>   -5.2582    1.0000 </r>
       <r>   -5.1598    1.0000 </r>
       <r>   -4.9896    1.0000 </r>
       <r>   -4.8742    1.0000 </r>
       <r>   -4.5743    1.0000 </r>
       <r>   -4.4471    1.0000 </r>
       <r>   -4.4158    1.0000 </r>
       <r>   -4.3230    1.0000 </r>
       <r>   -4.1676    1.0000 </r>
       <r>   -3.9029    1.0000 </r>
       <r>   -3.8346    1.0000 </r>
       <r>   -3.7342    1.0000 </r>
       <r>   -3.5938    1.0000 </r>
       <r>   -3.2238    1.0000 </r>
       <r>   -3.1929    1.0000 </r>
       <r>   -3.1286    1.0000 </r>
       <r>   -3.0796    1.0000 </r>
       <r>   -3.0372    1.0000 </r>
       <r>   -3.0117    1.0000 </r>
       <r>   -2.9365    1.0000 </r>
       <r>   -2.6642    1.0000 </r>
       <r>   -2.4846    1.0000 </r>
       <r>   -2.4153    1.0000 </r>
       <r>   -2.3467    1.0000 </r>
       <r>   -2.1239    1.0000 </r>
       <r>   -1.8616    1.0000 </r>
       <r>   -1.8270    1.0000 </r>
       <r>   -1.7611    1.0000 </r>
       <r>   -1.6857    1.0000 </r>
       <r>   -1.6403    1.0000 </r>
       <r>   -1.6313    1.0000 </r>
       <r>   -1.5367    1.0000 </r>
       <r>   -1.4678    1.0000 </r>
       <r>   -1.0799    1.0000 </r>
       <r>   -1.0022    1.0000 </r>
       <r>   -0.9599    1.0000 </r>
       <r>   -0.9177    1.0000 </r>
       <r>   -0.7796    0.4474 </r>
       <r>   -0.7621    0.1329 </r>
       <r>   -0.7068   -0.0207 </r>
       <r>   -0.6091    0.0000 </r>
       <r>   -0.3930    0.0000 </r>
       <r>   -0.2070    0.0000 </r>
       <r>   -0.1571    0.0000 </r>
       <r>   -0.1196    0.0000 </r>
       <r>   -0.0687    0.0000 </r>
       <r>    0.0546    0.0000 </r>
       <r>    0.1383    0.0000 </r>
       <r>    0.2007    0.0000 </r>
       <r>    0.2852    0.0000 </r>
       <r>    0.3467    0.0000 </r>
       <r>    0.3895    0.0000 </r>
       <r>    0.4588    0.0000 </r>
       <r>    0.4894    0.0000 </r>
       <r>    0.6330    0.0000 </r>
       <r>    0.7545    0.0000 </r>
       <r>    0.8367    0.0000 </r>
       <r>    0.8787    0.0000 </r>
       <r>    1.0061    0.0000 </r>
       <r>    1.0580    0.0000 </r>
       <r>    1.1282    0.0000 </r>
       <r>    1.1472    0.0000 </r>
       <r>    1.2154    0.0000 </r>
       <r>    1.2612    0.0000 </r>
       <r>    1.2987    0.0000 </r>
       <r>    1.4104    0.0000 </r>
       <r>    1.4962    0.0000 </r>
       <r>    1.5313    0.0000 </r>
       <r>    1.5848    0.0000 </r>
       <r>    1.7697    0.0000 </r>
       <r>    2.0025    0.0000 </r>
      </set>
      <set comment="kpoint 4">
       <r>  -23.5090    1.0000 </r>
       <r>  -23.3477    1.0000 </r>
       <r>  -23.2977    1.0000 </r>
       <r>  -23.2430    1.0000 </r>
       <r>  -23.0241    1.0000 </r>
       <r>  -21.3145    1.0000 </r>
       <r>  -11.5056    1.0000 </r>
       <r>  -11.4389    1.0000 </r>
       <r>  -11.3893    1.0000 </r>
       <r>  -11.0829    1.0000 </r>
       <r>  -10.9212    1.0000 </r>
       <r>   -8.7549    1.0000 </r>
       <r>   -8.5519    1.0000 </r>
       <r>   -8.4946    1.0000 </r>
       <r>   -8.2942    1.0000 </r>
       <r>   -7.6901    1.0000 </r>
       <r>   -7.5166    1.0000 </r>
       <r>   -7.0601    1.0000 </r>
       <r>   -6.8359    1.0000 </r>
       <r>   -6.8203    1.0000 </r>
       <r>   -6.6688    1.0000 </r>
       <r>   -6.4309    1.0000 </r>
       <r>   -6.3657    1.0000 </r>
       <r>   -6.1955    1.0000 </r>
       <r>   -6.1631    1.0000 </r>
       <r>   -6.0955    1.0000 </r>
       <r>   -5.8554    1.0000 </r>
       <r>   -5.6538    1.0000 </r>
       <r>   -5.5535    1.0000 </r>
       <r>   -5.4607    1.0000 </r>
       <r>   -5.3460    1.0000 </r>
       <r>   -5.2251    1.0000 </r>
       <r>   -4.9833    1.0000 </r>
       <r>   -4.8780    1.0000 </r>
       <r>   -4.6689    1.0000 </r>
       <r>   -4.6604    1.0000 </r>
       <r>   -4.6002    1.0000 </r>
       <r>   -4.1844    1.0000 </r>
       <r>   -4.1561    1.0000 </r>
       <r>   -4.1144    1.0000 </r>
       <r>   -4.0790    1.0000 </r>
       <r>   -4.0523    1.0000 </r>
       <r>   -3.6192    1.0000 </r>
       <r>   -3.2353    1.0000 </r>
       <r>   -3.2114    1.0000 </r>
       <r>   -2.9398    1.0000 </r>
       <r>   -2.6655    1.0000 </r>
       <r>   -2.6305    1.0000 </r>
       <r>   -2.5921    1.0000 </r>
       <r>   -2.5819    1.0000 </r>
       <r>   -2.5761    1.0000 </r>
       <r>   -2.5549    1.0000 </r>
       <r>   -2.5500    1.0000 </r>
       <r>   -2.5374    1.0000 </r>
       <r>   -2.3822    1.0000 </r>
       <r>   -2.1278    1.0000 </r>
       <r>   -2.1183    1.0000 </r>
       <r>   -2.0989    1.0000 </r>
       <r>   -2.0633    1.0000 </r>
       <r>   -2.0428    1.0000 </r>
       <r>   -2.0185    1.0000 </r>
       <r>   -1.9722    1.0000 </r>
       <r>   -1.9529    1.0000 </r>
       <r>   -1.6504    1.0000 </r>
       <r>   -1.4606    1.0000 </r>
       <r>   -1.4382    1.0000 </r>
       <r>   -1.2419    1.0000 </r>
       <r>   -1.2057    1.0000 </r>
       <r>   -1.0742    1.4308 </r>
       <r>   -0.8648    1.1055 </r>
       <r>   -0.8044    0.1097 </r>
       <r>   -0.7811    0.0000 </r>
       <r>   -0.7109    0.0000 </r>
[...]
       <r>   -21.6729     0.0000    10.0000 </r>
       <r>   -21.5744     0.0000    10.0000 </r>
       <r>   -21.4759     0.0000    10.0000 </r>
       <r>   -21.3775     0.0000    10.0000 </r>
       <r>   -21.2790     0.0000    12.0000 </r>
       <r>   -21.1805     0.0000    12.0000 </r>
       <r>   -21.0820     0.0000    12.0000 </r>
       <r>   -20.9836     0.0000    12.0000 </r>
       <r>   -20.8851     0.0000    12.0000 </r>
       <r>   -20.7866     0.0000    12.0000 </r>
       <r>   -20.6882     0.0000    12.0000 </r>
       <r>   -20.5897     0.0000    12.0000 </r>
       <r>   -20.4912     0.0000    12.0000 </r>
       <r>   -20.3927     0.0000    12.0000 </r>
       <r>   -20.2943     0.0000    12.0000 </r>
       <r>   -20.1958     0.0000    12.0000 </r>
       <r>   -20.0973     0.0000    12.0000 </r>
       <r>   -19.9988     0.0000    12.0000 </r>
       <r>   -19.9004     0.0000    12.0000 </r>
       <r>   -19.8019     0.0000    12.0000 </r>
       <r>   -19.7034     0.0000    12.0000 </r>
       <r>   -19.6050     0.0000    12.0000 </r>
       <r>   -19.5065     0.0000    12.0000 </r>
       <r>   -19.4080     0.0000    12.0000 </r>
       <r>   -19.3095     0.0000    12.0000 </r>
       <r>   -19.2111     0.0000    12.0000 </r>
       <r>   -19.1126     0.0000    12.0000 </r>
       <r>   -19.0141     0.0000    12.0000 </r>
       <r>   -18.9157     0.0000    12.0000 </r>
       <r>   -18.8172     0.0000    12.0000 </r>
       <r>   -18.7187     0.0000    12.0000 </r>
       <r>   -18.6202     0.0000    12.0000 </r>
       <r>   -18.5218     0.0000    12.0000 </r>
       <r>   -18.4233     0.0000    12.0000 </r>
       <r>   -18.3248     0.0000    12.0000 </r>
       <r>   -18.2263     0.0000    12.0000 </r>
       <r>   -18.1279     0.0000    12.0000 </r>
       <r>   -18.0294     0.0000    12.0000 </r>
       <r>   -17.9309     0.0000    12.0000 </r>
       <r>   -17.8325     0.0000    12.0000 </r>
       <r>   -17.7340     0.0000    12.0000 </r>
       <r>   -17.6355     0.0000    12.0000 </r>
       <r>   -17.5370     0.0000    12.0000 </r>
       <r>   -17.4386     0.0000    12.0000 </r>
       <r>   -17.3401     0.0000    12.0000 </r>
       <r>   -17.2416     0.0000    12.0000 </r>
       <r>   -17.1432     0.0000    12.0000 </r>
       <r>   -17.0447     0.0000    12.0000 </r>
       <r>   -16.9462     0.0000    12.0000 </r>
       <r>   -16.8477     0.0000    12.0000 </r>
       <r>   -16.7493     0.0000    12.0000 </r>
       <r>   -16.6508     0.0000    12.0000 </r>
       <r>   -16.5523     0.0000    12.0000 </r>
       <r>   -16.4539     0.0000    12.0000 </r>
       <r>   -16.3554     0.0000    12.0000 </r>
       <r>   -16.2569     0.0000    12.0000 </r>
       <r>   -16.1584     0.0000    12.0000 </r>
       <r>   -16.0600     0.0000    12.0000 </r>
       <r>   -15.9615     0.0000    12.0000 </r>
       <r>   -15.8630     0.0000    12.0000 </r>
       <r>   -15.7645     0.0000    12.0000 </r>
       <r>   -15.6661     0.0000    12.0000 </r>
       <r>   -15.5676     0.0000    12.0000 </r>
       <r>   -15.4691     0.0000    12.0000 </r>
       <r>   -15.3707     0.0000    12.0000 </r>
       <r>   -15.2722     0.0000    12.0000 </r>
       <r>   -15.1737     0.0000    12.0000 </r>
       <r>   -15.0752     0.0000    12.0000 </r>
       <r>   -14.9768     0.0000    12.0000 </r>
       <r>   -14.8783     0.0000    12.0000 </r>
       <r>   -14.7798     0.0000    12.0000 </r>
       <r>   -14.6814     0.0000    12.0000 </r>
       <r>   -14.5829     0.0000    12.0000 </r>
       <r>   -14.4844     0.0000    12.0000 </r>
       <r>   -14.3859     0.0000    12.0000 </r>
       <r>   -14.2875     0.0000    12.0000 </r>
       <r>   -14.1890     0.0000    12.0000 </r>
       <r>   -14.0905     0.0000    12.0000 </r>
       <r>   -13.9920     0.0000    12.0000 </r>
       <r>   -13.8936     0.0000    12.0000 </r>
       <r>   -13.7951     0.0000    12.0000 </r>
       <r>   -13.6966     0.0000    12.0000 </r>
       <r>   -13.5982     0.0000    12.0000 </r>
       <r>   -13.4997     0.0000    12.0000 </r>
       <r>   -13.4012     0.0000    12.0000 </r>
       <r>   -13.3027     0.0000    12.0000 </r>
       <r>   -13.2043     0.0000    12.0000 </r>
       <r>   -13.1058     0.0000    12.0000 </r>
       <r>   -13.0073     0.0000    12.0000 </r>
       <r>   -12.9089     0.0000    12.0000 </r>
       <r>   -12.8104     0.0000    12.0000 </r>
       <r>   -12.7119     0.0000    12.0000 </r>
       <r>   -12.6134     0.0000    12.0000 </r>
       <r>   -12.5150     0.0000    12.0000 </r>
       <r>   -12.4165     0.0000    12.0000 </r>
       <r>   -12.3180     0.0000    12.0000 </r>
       <r>   -12.2195     0.0000    12.0000 </r>
       <r>   -12.1211     0.0000    12.0000 </r>
       <r>   -12.0226     0.0000    12.0000 </r>
       <r>   -11.9241     0.0000    12.0000 </r>
       <r>   -11.8257     0.0000    12.0000 </r>
       <r>   -11.7272     0.0000    12.0000 </r>
       <r>   -11.6287     0.0000    12.0000 </r>
       <r>   -11.5302     0.0000    12.0000 </r>
       <r>   -11.4318     0.0000    16.0000 </r>
       <r>   -11.3333     0.0000    18.0000 </r>
       <r>   -11.2348     0.0000    18.0000 </r>
       <r>   -11.1364     0.0000    18.0000 </r>
       <r>   -11.0379     0.0000    20.0000 </r>
       <r>   -10.9394     0.0000    20.0000 </r>
       <r>   -10.8409     0.0000    22.0000 </r>
       <r>   -10.7425     0.0000    22.0000 </r>
       <r>   -10.6440     0.0000    22.0000 </r>
       <r>   -10.5455     0.0000    22.0000 </r>
       <r>   -10.4471     0.0000    22.0000 </r>
       <r>   -10.3486     0.0000    22.0000 </r>
       <r>   -10.2501     0.0000    22.0000 </r>
       <r>   -10.1516     0.0000    22.0000 </r>
       <r>   -10.0532     0.0000    22.0000 </r>
       <r>    -9.9547     0.0000    22.0000 </r>
       <r>    -9.8562     0.0000    22.0000 </r>
       <r>    -9.7577     0.0000    22.0000 </r>
       <r>    -9.6593     0.0000    22.0000 </r>
       <r>    -9.5608     0.0000    22.0000 </r>
       <r>    -9.4623     0.0000    22.0000 </r>
       <r>    -9.3639     0.0000    22.0000 </r>
       <r>    -9.2654     0.0000    22.0000 </r>
       <r>    -9.1669     0.0000    22.0000 </r>
       <r>    -9.0684     0.0000    22.0000 </r>
       <r>    -8.9700     0.0000    22.0000 </r>
       <r>    -8.8715     0.0000    22.0000 </r>
       <r>    -8.7730     0.0000    22.0000 </r>
       <r>    -8.6746     0.0000    24.0000 </r>
       <r>    -8.5761     0.0000    24.0000 </r>
       <r>    -8.4776    32.5403    27.7451 </r>
       <r>    -8.3791     0.0000    28.0000 </r>
       <r>    -8.2807     0.0000    30.0000 </r>
       <r>    -8.1822     0.0000    30.0000 </r>
       <r>    -8.0837     0.0000    30.0000 </r>
       <r>    -7.9852     0.0000    30.0000 </r>
       <r>    -7.8868     0.0000    30.0000 </r>
       <r>    -7.7883     0.0000    30.0000 </r>
       <r>    -7.6898   200.4381    31.0431 </r>
       <r>    -7.5914     0.0000    32.0000 </r>
       <r>    -7.4929     0.6656    34.0047 </r>
       <r>    -7.3944     5.3422    34.3005 </r>
       <r>    -7.2959     8.0664    35.0490 </r>
       <r>    -7.1975     4.6979    35.6774 </r>
       <r>    -7.0990     2.1553    35.9788 </r>
       <r>    -7.0005     8.1632    36.4472 </r>
       <r>    -6.9021     8.9481    37.7041 </r>
       <r>    -6.8036     1.4069    38.0118 </r>
       <r>    -6.7051     9.6747    38.5574 </r>
       <r>    -6.6066    13.4430    39.9736 </r>
       <r>    -6.5082    10.2228    40.8213 </r>
       <r>    -6.4097    19.3053    42.0181 </r>
       <r>    -6.3112    19.5972    44.3241 </r>
       <r>    -6.2127     5.1058    45.6459 </r>
       <r>    -6.1143    27.9981    47.0062 </r>
       <r>    -6.0158    14.6525    48.3848 </r>
       <r>    -5.9173    14.7954    50.0780 </r>
       <r>    -5.8189     9.9150    52.6796 </r>
       <r>    -5.7204     5.6197    53.4444 </r>
       <r>    -5.6219     6.9468    55.3517 </r>
       <r>    -5.5234    32.9033    57.7264 </r>
       <r>    -5.4250    25.1387    60.2741 </r>
       <r>    -5.3265     0.0000    62.0000 </r>
       <r>    -5.2280    11.8027    64.1597 </r>
       <r>    -5.1296    11.4909    65.1596 </r>
       <r>    -5.0311     3.7548    65.9103 </r>
       <r>    -4.9326    12.3272    67.6636 </r>
       <r>    -4.8341    11.3413    69.1069 </r>
       <r>    -4.7357     7.7838    70.0395 </r>
       <r>    -4.6372    14.6859    70.8067 </r>
       <r>    -4.5387    13.9417    73.1297 </r>
       <r>    -4.4403    17.8267    75.1241 </r>
       <r>    -4.3418    18.5308    76.5348 </r>
       <r>    -4.2433    12.0016    78.1926 </r>
       <r>    -4.1448    35.7354    79.2613 </r>
       <r>    -4.0464     4.7116    80.3879 </r>
       <r>    -3.9479    21.6517    81.6015 </r>
       <r>    -3.8494    23.1446    83.9511 </r>
       <r>    -3.7509     8.0094    84.7972 </r>
       <r>    -3.6525    10.9155    86.4518 </r>
       <r>    -3.5540     8.6090    87.1975 </r>
       <r>    -3.4555     7.2083    87.9763 </r>
       <r>    -3.3571     6.5617    88.6333 </r>
       <r>    -3.2586     6.8930    89.2957 </r>
       <r>    -3.1601    16.2824    91.5471 </r>
       <r>    -3.0616    15.7801    93.4123 </r>
       <r>    -2.9632    33.9792    96.1222 </r>
       <r>    -2.8647    24.9153    99.2861 </r>
       <r>    -2.7662    11.6087   101.0325 </r>
       <r>    -2.6678    23.1054   102.0961 </r>
       <r>    -2.5693     9.0277   104.1623 </r>
       <r>    -2.4708    12.4049   106.4133 </r>
       <r>    -2.3723    22.3166   107.5487 </r>
       <r>    -2.2739     4.0367   109.1605 </r>
       <r>    -2.1754     3.0554   109.5097 </r>
       <r>    -2.0769     6.3638   111.2213 </r>
       <r>    -1.9784    17.1481   112.3170 </r>
       <r>    -1.8800    33.9114   114.8011 </r>
       <r>    -1.7815    30.6417   117.8041 </r>
       <r>    -1.6830    29.1672   120.8495 </r>
       <r>    -1.5846    23.6775   123.2636 </r>
       <r>    -1.4861    23.4756   125.5076 </r>
       <r>    -1.3876    12.4444   127.1098 </r>
       <r>    -1.2891     9.9402   128.2052 </r>
       <r>    -1.1907    11.1586   129.1628 </r>
       <r>    -1.0922    32.3694   131.2835 </r>
       <r>    -0.9937    18.5148   133.8113 </r>
       <r>    -0.8953    46.3324   136.1708 </r>
       <r>    -0.7968    35.4431   137.7208 </r>
       <r>    -0.6983    31.0942   141.4075 </r>
       <r>    -0.5998    20.6122   143.8181 </r>
       <r>    -0.5014     8.0150   144.6443 </r>
       <r>    -0.4029    25.2501   145.8465 </r>
       <r>    -0.3044    10.7878   147.5192 </r>
       <r>    -0.2059     6.2041   149.1099 </r>
       <r>    -0.1075    20.4562   151.3518 </r>
       <r>    -0.0090     5.3814   153.7913 </r>
       <r>     0.0895    42.0733   156.2528 </r>
       <r>     0.1879    39.3103   159.7397 </r>
       <r>     0.2864     0.0000   162.0000 </r>
       <r>     0.3849    13.9567   163.1522 </r>
       <r>     0.4834    22.2661   166.0153 </r>
       <r>     0.5818    16.8415   168.1760 </r>
       <r>     0.6803    22.7712   169.9983 </r>
       <r>     0.7788    30.6324   172.1755 </r>
       <r>     0.8772    16.7268   174.8131 </r>
       <r>     0.9757    16.9063   176.6459 </r>
       <r>     1.0742    29.3172   179.1993 </r>
       <r>     1.1727    24.9923   182.4349 </r>
       <r>     1.2711    31.5478   186.3374 </r>
       <r>     1.3696    29.5307   189.8961 </r>
       <r>     1.4681    43.2097   193.4266 </r>
       <r>     1.5666    34.3449   197.3817 </r>
       <r>     1.6650    12.7497   200.0206 </r>
       <r>     1.7635     6.4208   200.6491 </r>
       <r>     1.8620    10.5675   201.9311 </r>
       <r>     1.9604     3.0793   202.5045 </r>
       <r>     2.0589     0.0000   204.0000 </r>
       <r>     2.1574     0.0000   204.0000 </r>
       <r>     2.2559     0.0000   204.0000 </r>
       <r>     2.3543     0.0000   204.0000 </r>
       <r>     2.4528     0.0000   204.0000 </r>
       <r>     2.5513     0.0000   204.0000 </r>
       <r>     2.6497     0.0000   204.0000 </r>
       <r>     2.7482     0.0000   204.0000 </r>
       <r>     2.8467     0.0000   204.0000 </r>
       <r>     2.9452     0.0000   204.0000 </r>
       <r>     3.0436     0.0000   204.0000 </r>
       <r>     3.1421     0.0000   204.0000 </r>
       <r>     3.2406     0.0000   204.0000 </r>
       <r>     3.3390     0.0000   204.0000 </r>
       <r>     3.4375     0.0000   204.0000 </r>
       <r>     3.5360     0.0000   204.0000 </r>
       <r>     3.6345     0.0000   204.0000 </r>
       <r>     3.7329     0.0000   204.0000 </r>
       <r>     3.8314     0.0000   204.0000 </r>
       <r>     3.9299     0.0000   204.0000 </r>
       <r>     4.0284     0.0000   204.0000 </r>
      </set>
     </set>
    </array>
   </total>
  </dos>
 </calculation>
 <structure name="finalpos" >
  <crystal>
   <varray name="basis" >
    <v>       9.55575275       0.00000000       0.00000000 </v>
    <v>      -4.77787638       8.27552464       0.00000000 </v>
    <v>       0.00000000       0.00000000      32.62509537 </v>
   </varray>
   <i name="volume">   2579.95558872 </i>
   <varray name="rec_basis" >
    <v>       0.10464900       0.06041913       0.00000000 </v>
    <v>       0.00000000       0.12083826       0.00000000 </v>
    <v>       0.00000000       0.00000000       0.03065125 </v>
   </varray>
  </crystal>
  <varray name="positions" >
   <v>       0.00000000       0.00000000       0.00000000 </v>
   <v>       0.99869516       0.99783861       0.15851697 </v>
   <v>       0.00184344       0.00007760       0.32992195 </v>
   <v>       0.00000001       0.33333336       0.00000000 </v>
   <v>       0.99993625       0.33324577       0.15737067 </v>
   <v>       0.99252856       0.33039194       0.31209637 </v>
   <v>       0.00000002       0.66666672       0.00000000 </v>
   <v>       0.99828151       0.66562072       0.15813614 </v>
   <v>       0.00520194       0.66851372       0.31513669 </v>
   <v>       0.33333334       0.00000000       0.00000000 </v>
   <v>       0.33184124       0.99815075       0.15761882 </v>
   <v>       0.32873286       0.99306000       0.31080444 </v>
   <v>       0.33333335       0.33333336       0.00000000 </v>
   <v>       0.33226913       0.33096931       0.15702704 </v>
   <v>       0.31914662       0.31844942       0.31099830 </v>
   <v>       0.33333336       0.66666672       0.00000000 </v>
   <v>       0.33194274       0.66553191       0.15820411 </v>
   <v>       0.32137552       0.66647891       0.33151097 </v>
   <v>       0.66666668       0.00000000       0.00000000 </v>
   <v>       0.66615363       0.99764376       0.15772639 </v>
   <v>       0.66832903       0.00431164       0.31354584 </v>
   <v>       0.66666668       0.33333336       0.00000000 </v>
   <v>       0.66615120       0.33402692       0.15876984 </v>
   <v>       0.66142291       0.31815412       0.32590683 </v>
   <v>       0.66666670       0.66666672       0.00000000 </v>
   <v>       0.66762985       0.66572113       0.15879064 </v>
   <v>       0.67037087       0.66889065       0.32357907 </v>
   <v>       0.11111113       0.22222222       0.07982145 </v>
   <v>       0.10661732       0.21854733       0.23543133 </v>
   <v>       0.11111114       0.55555561       0.07982145 </v>
   <v>       0.11409063       0.55644132       0.23673645 </v>
   <v>       0.11111116       0.88888894       0.07982145 </v>
   <v>       0.10745913       0.88699601       0.23597518 </v>
   <v>       0.44444450       0.22222222       0.07982145 </v>
   <v>       0.44585178       0.22234812       0.23606118 </v>
   <v>       0.44444450       0.55555561       0.07982145 </v>
   <v>       0.44427797       0.55396667       0.23523347 </v>
   <v>       0.44444451       0.88888894       0.07982145 </v>
   <v>       0.44360141       0.88248397       0.23628439 </v>
   <v>       0.77777779       0.22222222       0.07982145 </v>
   <v>       0.77457312       0.22001584       0.23500709 </v>
   <v>       0.77777781       0.55555561       0.07982145 </v>
   <v>       0.77194546       0.54938243       0.24108813 </v>
   <v>       0.77777784       0.88888894       0.07982145 </v>
   <v>       0.77781622       0.88395978       0.23989726 </v>
   <v>       0.99924531       0.99544976       0.39446639 </v>
   <v>       0.28670169       0.00815777       0.41571483 </v>
   <v>       0.89869826       0.21611484       0.41630683 </v>
   <v>       0.62094503       0.34825170       0.38862578 </v>
   <v>       0.64118465       0.62836246       0.38474633 </v>
   <v>       0.39080754       0.66635978       0.39176053 </v>
   <v>       0.97145373       0.07209164       0.40773189 </v>
   <v>       0.10073095       0.00915952       0.40694905 </v>
   <v>       0.38232645       0.11244520       0.40899480 </v>
   <v>       0.27468052       0.93977942       0.39173201 </v>
   <v>       0.99548457       0.32341535       0.41618196 </v>
   <v>       0.85639876       0.20437355       0.38787546 </v>
   <v>       0.62903131       0.46105191       0.39136568 </v>
   <v>       0.69612301       0.34400536       0.40826127 </v>
   <v>       0.73569033       0.70873329       0.39987030 </v>
   <v>       0.43411218       0.54914305       0.31879082 </v>
   <v>       0.40601820       0.75301314       0.41025175 </v>
   <v>       0.49212684       0.65356172       0.39346270 </v>
  </varray>
  <varray name="selective"  type="logical" >
   <v type="logical" >  F  F  F </v>
   <v type="logical" >  T  T  T </v>
   <v type="logical" >  T  T  T </v>
   <v type="logical" >  F  F  F </v>
   <v type="logical" >  T  T  T </v>
   <v type="logical" >  T  T  T </v>
   <v type="logical" >  F  F  F </v>
   <v type="logical" >  T  T  T </v>
   <v type="logical" >  T  T  T </v>
   <v type="logical" >  F  F  F </v>
   <v type="logical" >  T  T  T </v>
   <v type="logical" >  T  T  T </v>
   <v type="logical" >  F  F  F </v>
   <v type="logical" >  T  T  T </v>
   <v type="logical" >  T  T  T </v>
   <v type="logical" >  F  F  F </v>
   <v type="logical" >  T  T  T </v>
   <v type="logical" >  T  T  T </v>
   <v type="logical" >  F  F  F </v>
   <v type="logical" >  T  T  T </v>
   <v type="logical" >  T  T  T </v>
   <v type="logical" >  F  F  F </v>
   <v type="logical" >  T  T  T </v>
   <v type="logical" >  T  T  T </v>
   <v type="logical" >  F  F  F </v>
   <v type="logical" >  T  T  T </v>
   <v type="logical" >  T  T  T </v>
   <v type="logical" >  F  F  F </v>
   <v type="logical" >  T  T  T </v>
   <v type="logical" >  F  F  F </v>
   <v type="logical" >  T  T  T </v>
   <v type="logical" >  F  F  F </v>
   <v type="logical" >  T  T  T </v>
   <v type="logical" >  F  F  F </v>
   <v type="logical" >  T  T  T </v>
   <v type="logical" >  F  F  F </v>
   <v type="logical" >  T  T  T </v>
   <v type="logical" >  F  F  F </v>
   <v type="logical" >  T  T  T </v>
   <v type="logical" >  F  F  F </v>
   <v type="logical" >  T  T  T </v>
   <v type="logical" >  F  F  F </v>
   <v type="logical" >  T  T  T </v>
   <v type="logical" >  F  F  F </v>
   <v type="logical" >  T  T  T </v>
   <v type="logical" >  T  T  T </v>
   <v type="logical" >  T  T  T </v>
   <v type="logical" >  T  T  T </v>
   <v type="logical" >  T  T  T </v>
   <v type="logical" >  T  T  T </v>
   <v type="logical" >  T  T  T </v>
   <v type="logical" >  T  T  T </v>
   <v type="logical" >  T  T  T </v>
   <v type="logical" >  T  T  T </v>
   <v type="logical" >  T  T  T </v>
   <v type="logical" >  T  T  T </v>
   <v type="logical" >  T  T  T </v>
   <v type="logical" >  T  T  T </v>
   <v type="logical" >  T  T  T </v>
   <v type="logical" >  T  T  T </v>
   <v type="logical" >  T  T  T </v>
   <v type="logical" >  T  T  T </v>
   <v type="logical" >  T  T  T </v>
  </varray>
  <nose>
   <v>      -3.00000000       0.00000000       0.00010000       0.00010000 </v>
  </nose>
 </structure>
</modeling>
