Mg_slab_in_a_box                        
           1
     9.555753    0.000000    0.000000
    -4.777876    8.275525    0.000000
     0.000000    0.000000   32.625095
   Mg   O    H 
  45   6  12
Direct configuration=     1
   0.00000000  0.00000000  0.00000000
   0.99869516  0.99783861  0.15851697
   0.00184344  0.00007760  0.32992195
   0.00000001  0.33333336  0.00000000
   0.99993625  0.33324577  0.15737067
   0.99252856  0.33039194  0.31209637
   0.00000002  0.66666672  0.00000000
   0.99828151  0.66562072  0.15813614
   0.00520194  0.66851372  0.31513669
   0.33333334  0.00000000  0.00000000
   0.33184124  0.99815075  0.15761882
   0.32873286  0.99306000  0.31080444
   0.33333335  0.33333336  0.00000000
   0.33226913  0.33096931  0.15702704
   0.31914662  0.31844942  0.31099830
   0.33333336  0.66666672  0.00000000
   0.33194274  0.66553191  0.15820411
   0.32137552  0.66647891  0.33151097
   0.66666668  0.00000000  0.00000000
   0.66615363  0.99764376  0.15772639
   0.66832903  0.00431164  0.31354584
   0.66666668  0.33333336  0.00000000
   0.66615120  0.33402692  0.15876984
   0.66142291  0.31815412  0.32590683
   0.66666670  0.66666672  0.00000000
   0.66762985  0.66572113  0.15879064
   0.67037087  0.66889065  0.32357907
   0.11111113  0.22222222  0.07982145
   0.10661732  0.21854733  0.23543133
   0.11111114  0.55555561  0.07982145
   0.11409063  0.55644132  0.23673645
   0.11111116  0.88888894  0.07982145
   0.10745913  0.88699601  0.23597518
   0.44444450  0.22222222  0.07982145
   0.44585178  0.22234812  0.23606118
   0.44444450  0.55555561  0.07982145
   0.44427797  0.55396667  0.23523347
   0.44444451  0.88888894  0.07982145
   0.44360141  0.88248397  0.23628439
   0.77777779  0.22222222  0.07982145
   0.77457312  0.22001584  0.23500709
   0.77777781  0.55555561  0.07982145
   0.77194546  0.54938243  0.24108813
   0.77777784  0.88888894  0.07982145
   0.77781622  0.88395978  0.23989726
   0.99924531  0.99544976  0.39446639
   0.28670169  0.00815777  0.41571483
   0.89869826  0.21611484  0.41630683
   0.62094503  0.34825170  0.38862578
   0.64118465  0.62836246  0.38474633
   0.39080754  0.66635978  0.39176053
   0.97145373  0.07209164  0.40773189
   0.10073095  0.00915952  0.40694905
   0.38232645  0.11244520  0.40899480
   0.27468052  0.93977942  0.39173201
   0.99548457  0.32341535  0.41618196
   0.85639876  0.20437355  0.38787546
   0.62903131  0.46105191  0.39136568
   0.69612301  0.34400536  0.40826127
   0.73569033  0.70873329  0.39987030
   0.43411218  0.54914305  0.31879082
   0.40601820  0.75301314  0.41025175
   0.49212684  0.65356172  0.39346270
